65
Lattice="11.801682 -8e-06 -8e-06 -8e-06 11.801682 -8e-06 -8e-06 -8e-06 11.801682" Properties=species:S:1:pos:R:3:mulliken_charges:R:1:hirshfeld_charges:R:1 fermi_energy=3.718544537463 core_to_fermi_energy=15.690571930710242 config_type=Interstitial pbc="T T T"
P        1.39954481       1.45349711       4.47163471      -0.64200000      -0.23000000
P        3.96572036       2.21004619       2.21004619      -0.45200000      -0.16000000
P        1.39954481       4.47163471       1.45349711      -0.64200000      -0.23000000
P        4.46253716       4.49652836       4.49652836      -0.66200000      -0.24000000
P        1.39947731       1.45146243      10.23497239      -0.64200000      -0.23000000
P        4.41217125       1.45250280       7.35333873      -0.67600000      -0.24000000
P        1.46292705       4.39860600       7.34137093      -0.67400000      -0.24000000
P        4.41014085       4.39307712      10.31359961      -0.67200000      -0.23000000
P        1.46292705       7.34137093       4.39860600      -0.67400000      -0.24000000
P        4.41217125       7.35333873       1.45250280      -0.67600000      -0.24000000
P        1.39947731      10.23497239       1.45146243      -0.64200000      -0.23000000
P        4.41014085      10.31359961       4.39307712      -0.67200000      -0.23000000
P        1.46289185       7.36526761      10.30804776      -0.67400000      -0.24000000
P        4.35561792       7.35337632       7.35337632      -0.68100000      -0.24000000
P        1.46289185      10.30804776       7.36526761      -0.67400000      -0.24000000
P        4.46245274      10.21025901      10.21025901      -0.66200000      -0.24000000
P        7.42388155       1.42361631       4.43839845      -0.67600000      -0.24000000
P       10.35240373       1.45249679       1.45249679      -0.67700000      -0.24000000
P        7.42388155       4.43839845       1.42361631      -0.67600000      -0.24000000
P       10.31340711       4.41088745       4.41088745      -0.67400000      -0.24000000
P        7.42382342       1.48138149      10.26832222      -0.67600000      -0.24000000
P       10.27857405       1.45249520       7.35334320      -0.68000000      -0.24000000
P        7.36247090       4.41278568       7.36665707      -0.67500000      -0.24000000
P       10.32838704       4.41278781      10.29389292      -0.67600000      -0.24000000
P        7.36247090       7.36665707       4.41278568      -0.67500000      -0.24000000
P       10.27857405       7.35334320       1.45249520      -0.68000000      -0.24000000
P        7.42382342      10.26832222       1.48138149      -0.67600000      -0.24000000
P       10.32838704      10.29389292       4.41278781      -0.67600000      -0.24000000
P        7.36243947       7.34004252      10.29390871      -0.67500000      -0.24000000
P       10.31255042       7.35333443       7.35333443      -0.67500000      -0.24000000
P        7.36243947      10.29390871       7.34004252      -0.67500000      -0.24000000
P       10.31335912      10.29577882      10.29577882      -0.67400000      -0.24000000
In       0.00175266      -0.03754455      -0.03754455       0.67600000       0.24000000
In       2.78921004      -0.10543187       3.01034526       0.73400000       0.26000000
In       0.00177606       2.94254117       2.94254117       0.67600000       0.24000000
In       2.78921004       3.01034526      -0.10543187       0.73400000       0.26000000
In      -0.04676682      -0.03080353       5.92651670       0.65600000       0.23000000
In       2.96200840      -0.03787450       8.84672687       0.68200000       0.25000000
In      -0.04678351       2.93584958       8.78015047       0.65600000       0.23000000
In       2.96205536       2.94285307       5.85988388       0.68200000       0.25000000
In      -0.04676682       5.92651670      -0.03080353       0.65600000       0.23000000
In       2.96205536       5.85988388       2.94285307       0.68200000       0.25000000
In      -0.04678351       8.78015047       2.93584958       0.65600000       0.23000000
In       2.96200840       8.84672687      -0.03787450       0.68200000       0.25000000
In      -0.00717776       5.88339772       5.88339772       0.68000000       0.24000000
In       2.91693053       5.86271394       8.84394769       0.68600000       0.24000000
In      -0.00720435       8.82329557       8.82329557       0.68000000       0.24000000
In       2.91693053       8.84394769       5.86271394       0.68600000       0.24000000
In       6.09826769      -0.18563693      -0.18563693       0.63300000       0.22000000
In       8.89218339      -0.01889981       2.92389330       0.68600000       0.24000000
In       6.09840376       3.09076180       3.09076180       0.63300000       0.22000000
In       8.89218339       2.92389330      -0.01889981       0.68600000       0.24000000
In       5.87940296      -0.02260603       5.88208219       0.68700000       0.24000000
In       8.84724549      -0.04384208       8.81304269       0.67800000       0.24000000
In       5.87940246       2.92762186       8.82460138       0.68700000       0.24000000
In       8.84727853       2.94886290       5.89366091       0.67800000       0.24000000
In       5.87940296       5.88208219      -0.02260603       0.68700000       0.24000000
In       8.84727853       5.89366091       2.94886290       0.67800000       0.24000000
In       5.87940246       8.82460138       2.92762186       0.68700000       0.24000000
In       8.84724549       8.81304269      -0.04384208       0.67800000       0.24000000
In       5.89963205       5.94769596       5.94769596       0.66100000       0.23000000
In       8.84524380       5.87331300       8.83339529       0.67900000       0.24000000
In       5.89957731       8.75909430       8.75909430       0.66100000       0.23000000
In       8.84524380       8.83339529       5.87331300       0.67900000       0.24000000
P        3.96570038       0.69529803       0.69529803      -0.45200000      -0.16000000
65
Lattice="11.801682 -8e-06 -8e-06 -8e-06 11.801682 -8e-06 -8e-06 -8e-06 11.801682" Properties=species:S:1:pos:R:3:mulliken_charges:R:1:hirshfeld_charges:R:1 fermi_energy=3.718544537463 core_to_fermi_energy=15.690571930710242 config_type=Interstitial pbc="T T T"
P        1.35954795       1.45335360       4.52397903      -0.64200000      -0.23000000
P        3.96732422       2.12855001       2.36543775      -0.45200000      -0.16000000
P        1.45958459       4.39891945       1.42498032      -0.64200000      -0.23000000
P        4.47046860       4.49763419       4.50611968      -0.66200000      -0.24000000
P        1.36230447       1.43205751      10.16247380      -0.64200000      -0.23000000
P        4.41584621       1.45360584       7.34108691      -0.67600000      -0.24000000
P        1.46286074       4.41365481       7.34016442      -0.67400000      -0.24000000
P        4.42246367       4.40428424      10.28954054      -0.67200000      -0.23000000
P        1.47185429       7.32173866       4.36897746      -0.67400000      -0.24000000
P        4.41394090       7.35368156       1.44630105      -0.67600000      -0.24000000
P        1.42836252      10.27447949       1.46903651      -0.64200000      -0.23000000
P        4.42111350      10.28400992       4.42018871      -0.67200000      -0.23000000
P        1.46457682       7.37110945      10.32819566      -0.67400000      -0.24000000
P        4.36328506       7.35599768       7.36650398      -0.68100000      -0.24000000
P        1.44414532      10.27755892       7.34490519      -0.67400000      -0.24000000
P        4.44296172      10.24015710      10.21131466      -0.66200000      -0.24000000
P        7.45004425       1.41752008       4.44532080      -0.67600000      -0.24000000
P       10.35402772       1.45342061       1.44494678      -0.67700000      -0.24000000
P        7.42035380       4.43708983       1.42914208      -0.67600000      -0.24000000
P       10.32874347       4.40703049       4.39560791      -0.67400000      -0.24000000
P        7.41791151       1.49524305      10.26905251      -0.67600000      -0.24000000
P       10.25324328       1.45214117       7.36266678      -0.68000000      -0.24000000
P        7.37404602       4.42263357       7.35708307      -0.67500000      -0.24000000
P       10.32883964       4.42496202      10.29900539      -0.67600000      -0.24000000
P        7.36636861       7.36885133       4.40693864      -0.67500000      -0.24000000
P       10.29408430       7.34876745       1.44722989      -0.68000000      -0.24000000
P        7.39598109      10.29029650       1.46325861      -0.67600000      -0.24000000
P       10.31947294      10.28192675       4.39789302      -0.67600000      -0.24000000
P        7.36107060       7.34924605      10.29526895      -0.67500000      -0.24000000
P       10.31494961       7.35405478       7.34816884      -0.67500000      -0.24000000
P        7.36285234      10.29747648       7.34750818      -0.67500000      -0.24000000
P       10.31541357      10.29620900      10.30819676      -0.67400000      -0.24000000
In       0.01376793      -0.02663035      -0.04094893       0.67600000       0.24000000
In       2.77862116      -0.10767903       3.10752969       0.73400000       0.26000000
In       0.01865839       2.92512584       2.93391248       0.67600000       0.24000000
In       2.79874280       2.95886613      -0.20823969       0.73400000       0.26000000
In      -0.09185853      -0.05016167       5.94585106       0.65600000       0.23000000
In       2.94311974      -0.05214778       8.79723414       0.68200000       0.25000000
In      -0.07261126       2.95832030       8.75539725       0.65600000       0.23000000
In       2.95861292       2.94592495       5.86041482       0.68200000       0.25000000
In      -0.01355910       5.89648524      -0.00694037       0.65600000       0.23000000
In       2.97973292       5.83105150       2.92105112       0.68200000       0.25000000
In      -0.02882637       8.78836472       2.92007683       0.65600000       0.23000000
In       2.96480244       8.86453533      -0.02838945       0.68200000       0.25000000
In      -0.00455950       5.88829887       5.87070653       0.68000000       0.24000000
In       2.91081916       5.87820806       8.84776764       0.68600000       0.24000000
In      -0.01426062       8.81486083       8.83679341       0.68000000       0.24000000
In       2.91187424       8.80826499       5.86112366       0.68600000       0.24000000
In       6.05572306      -0.13999201      -0.18667075       0.63300000       0.22000000
In       8.89063412      -0.02499352       2.90833183       0.68600000       0.24000000
In       6.11572183       3.08407010       3.11297177       0.63300000       0.22000000
In       8.89201787       2.93087381      -0.02079143       0.68600000       0.24000000
In       5.88955216      -0.02030625       5.87555596       0.68700000       0.24000000
In       8.83837339      -0.04572799       8.83287926       0.67800000       0.24000000
In       5.88933357       2.93474647       8.80661393       0.68700000       0.24000000
In       8.85835727       2.95798596       5.88714479       0.67800000       0.24000000
In       5.88321839       5.88514742      -0.02440201       0.68700000       0.24000000
In       8.85671689       5.89639503       2.94747675       0.67800000       0.24000000
In       5.88330156       8.82270568       2.91898127       0.68700000       0.24000000
In       8.84384588       8.81705016      -0.03420502       0.67800000       0.24000000
In       5.90395169       5.95875507       5.94854278       0.66100000       0.23000000
In       8.84607651       5.88393378       8.83428595       0.67900000       0.24000000
In       5.89142912       8.77982951       8.77546908       0.66100000       0.23000000
In       8.84031359       8.83498779       5.87594005       0.67900000       0.24000000
P        3.93998431       0.81663371       0.69133644      -0.45200000      -0.16000000
65
Lattice="11.801682 -8e-06 -8e-06 -8e-06 11.801682 -8e-06 -8e-06 -8e-06 11.801682" Properties=species:S:1:pos:R:3:mulliken_charges:R:1:hirshfeld_charges:R:1 fermi_energy=3.718544537463 core_to_fermi_energy=15.690571930710242 config_type=Interstitial pbc="T T T"
P        1.33114526       1.44085082       4.53453416      -0.64200000      -0.23000000
P        4.10430546       1.89275943       2.52814387      -0.45200000      -0.16000000
P        1.48264371       4.37962491       1.42730596      -0.64200000      -0.23000000
P        4.46484158       4.49134813       4.47486442      -0.66200000      -0.24000000
P        1.37406436       1.44581623      10.15686267      -0.64200000      -0.23000000
P        4.41238907       1.45830037       7.32107666      -0.67600000      -0.24000000
P        1.46957980       4.41173045       7.32534233      -0.67400000      -0.24000000
P        4.43519023       4.41933553      10.27349794      -0.67200000      -0.23000000
P        1.46441560       7.32767564       4.36763068      -0.67400000      -0.24000000
P        4.41314865       7.36562062       1.43809674      -0.67600000      -0.24000000
P        1.43621296      10.28696832       1.46524201      -0.64200000      -0.23000000
P        4.42568105      10.22098561       4.47605273      -0.67200000      -0.23000000
P        1.46129219       7.36937793      10.32931306      -0.67400000      -0.24000000
P        4.37702344       7.33277445       7.38150575      -0.68100000      -0.24000000
P        1.42152068      10.27200563       7.34082346      -0.67400000      -0.24000000
P        4.41721624      10.24435662      10.18274408      -0.66200000      -0.24000000
P        7.47853275       1.44301469       4.46426043      -0.67600000      -0.24000000
P       10.34354802       1.45778778       1.43802859      -0.67700000      -0.24000000
P        7.43300238       4.46161076       1.40820697      -0.67600000      -0.24000000
P       10.33519484       4.40596079       4.39308600      -0.67400000      -0.24000000
P        7.40396264       1.50184797      10.26089582      -0.67600000      -0.24000000
P       10.25561708       1.44985676       7.38609221      -0.68000000      -0.24000000
P        7.37656080       4.43603862       7.35095339      -0.67500000      -0.24000000
P       10.32833262       4.42816337      10.29092949      -0.67600000      -0.24000000
P        7.36625925       7.36967219       4.39859513      -0.67500000      -0.24000000
P       10.30121388       7.35063125       1.44026947      -0.68000000      -0.24000000
P        7.35691939      10.32266043       1.44974228      -0.67600000      -0.24000000
P       10.29758774      10.28244230       4.37915407      -0.67600000      -0.24000000
P        7.36653406       7.37210832      10.29524029      -0.67500000      -0.24000000
P       10.31298027       7.35977171       7.34496040      -0.67500000      -0.24000000
P        7.35872237      10.31406225       7.33606848      -0.67500000      -0.24000000
P       10.31481862      10.30565314      10.32247907      -0.67400000      -0.24000000
In       0.02080253      -0.00415440      -0.04437276       0.67600000       0.24000000
In       2.74979964      -0.19113365       3.20239443       0.73400000       0.26000000
In       0.01648717       2.91582913       2.92733285       0.67600000       0.24000000
In       2.83145588       2.96345005      -0.21473336       0.73400000       0.26000000
In      -0.12937675      -0.06076147       5.94701023       0.65600000       0.23000000
In       2.92330505      -0.04286196       8.76785978       0.68200000       0.25000000
In      -0.06135789       2.96501222       8.75377291       0.65600000       0.23000000
In       2.95581889       2.93486719       5.83127165       0.68200000       0.25000000
In      -0.00384444       5.88163823      -0.00529355       0.65600000       0.23000000
In       2.97479654       5.85167129       2.91152678       0.68200000       0.25000000
In      -0.02965296       8.79840725       2.91044216       0.65600000       0.23000000
In       2.96248356       8.87161587      -0.03414488       0.68200000       0.25000000
In      -0.00621086       5.88912412       5.86885867       0.68000000       0.24000000
In       2.90185432       5.87510478       8.84627279       0.68600000       0.24000000
In      -0.02652485       8.81697096       8.84848940       0.68000000       0.24000000
In       2.89966409       8.76816120       5.90474442       0.68600000       0.24000000
In       6.01379527      -0.13077385      -0.22801978       0.63300000       0.22000000
In       8.86609093      -0.01158728       2.90049732       0.68600000       0.24000000
In       6.16518272       3.11828154       3.11688837       0.63300000       0.22000000
In       8.88788726       2.93200194      -0.03537875       0.68600000       0.24000000
In       5.88680894      -0.00201760       5.84505305       0.68700000       0.24000000
In       8.83034420      -0.04876727       8.84151186       0.67800000       0.24000000
In       5.89042946       2.94076593       8.78613681       0.68700000       0.24000000
In       8.88322255       2.96784318       5.91250086       0.67800000       0.24000000
In       5.88250753       5.90586218      -0.03782231       0.68700000       0.24000000
In       8.86954071       5.90588028       2.94887431       0.67800000       0.24000000
In       5.88289434       8.82757692       2.91453018       0.68700000       0.24000000
In       8.83598791       8.83678281      -0.01555381       0.67800000       0.24000000
In       5.89738831       5.95141149       5.92601902       0.66100000       0.23000000
In       8.84300489       5.89658518       8.83524753       0.67900000       0.24000000
In       5.89721978       8.79169072       8.76481354       0.66100000       0.23000000
In       8.83227228       8.83833443       5.87505675       0.67900000       0.24000000
P        3.93519986       0.87793602       0.69557403      -0.45200000      -0.16000000
65
Lattice="11.801682 -8e-06 -8e-06 -8e-06 11.801682 -8e-06 -8e-06 -8e-06 11.801682" Properties=species:S:1:pos:R:3:mulliken_charges:R:1:hirshfeld_charges:R:1 fermi_energy=3.718544537463 core_to_fermi_energy=15.690571930710242 config_type=Interstitial pbc="T T T"
P        1.33551502       1.44740170       4.52213591      -0.64200000      -0.23000000
P        4.34628561       1.61702457       2.58401225      -0.45200000      -0.16000000
P        1.47651551       4.38979121       1.43014848      -0.64200000      -0.23000000
P        4.44716992       4.49301826       4.46668423      -0.66200000      -0.24000000
P        1.37578391       1.45274237      10.15661791      -0.64200000      -0.23000000
P        4.41188286       1.45776140       7.32030514      -0.67600000      -0.24000000
P        1.47067772       4.40869656       7.32573104      -0.67400000      -0.24000000
P        4.44625126       4.43970601      10.26253547      -0.67200000      -0.23000000
P        1.45450217       7.32920790       4.36817182      -0.67400000      -0.24000000
P        4.41287621       7.37483700       1.44305360      -0.67600000      -0.24000000
P        1.44213289      10.28596162       1.46147504      -0.64200000      -0.23000000
P        4.41732716      10.19106625       4.51337310      -0.67200000      -0.23000000
P        1.45687073       7.36381218      10.32460650      -0.67400000      -0.24000000
P        4.38651284       7.32264672       7.38490797      -0.68100000      -0.24000000
P        1.41746479      10.27163279       7.33861591      -0.67400000      -0.24000000
P        4.40233880      10.23196677      10.16953285      -0.66200000      -0.24000000
P        7.46607110       1.47258635       4.47182419      -0.67600000      -0.24000000
P       10.33389722       1.45677266       1.44102076      -0.67700000      -0.24000000
P        7.44490492       4.48380472       1.39632165      -0.67600000      -0.24000000
P       10.33503448       4.40770104       4.39429625      -0.67400000      -0.24000000
P        7.39069312       1.49629797      10.26695537      -0.67600000      -0.24000000
P       10.26027299       1.44095702       7.38708491      -0.68000000      -0.24000000
P        7.37972534       4.43355199       7.34862345      -0.67500000      -0.24000000
P       10.32592813       4.42237861      10.28985461      -0.67600000      -0.24000000
P        7.36321876       7.37535661       4.39849902      -0.67500000      -0.24000000
P       10.30099173       7.35793464       1.44070407      -0.68000000      -0.24000000
P        7.33653797      10.33410858       1.43716141      -0.67600000      -0.24000000
P       10.28526654      10.29368223       4.37170320      -0.67600000      -0.24000000
P        7.37123896       7.37616648      10.29440033      -0.67500000      -0.24000000
P       10.31351067       7.35920212       7.34712722      -0.67500000      -0.24000000
P        7.36261683      10.31684742       7.33473960      -0.67500000      -0.24000000
P       10.31841306      10.31089767      10.32801179      -0.67400000      -0.24000000
In       0.02373151       0.00508672      -0.03883207       0.67600000       0.24000000
In       2.73773081      -0.22565699       3.23190361       0.73400000       0.26000000
In       0.00930502       2.91715535       2.92268559       0.67600000       0.24000000
In       2.81632514       3.01511813      -0.24509176       0.73400000       0.26000000
In      -0.12558175      -0.05984317       5.93549826       0.65600000       0.23000000
In       2.91589420      -0.03868354       8.76384612       0.68200000       0.25000000
In      -0.06364099       2.96040175       8.75021915       0.65600000       0.23000000
In       2.95423774       2.92814586       5.83182310       0.68200000       0.25000000
In      -0.01424615       5.88598310      -0.01016360       0.65600000       0.23000000
In       2.96738385       5.86272224       2.90791817       0.68200000       0.25000000
In      -0.03414229       8.80959000       2.91033269       0.65600000       0.23000000
In       2.95714583       8.85997960      -0.03886336       0.68200000       0.25000000
In      -0.00689821       5.88601071       5.87187699       0.68000000       0.24000000
In       2.90187041       5.87797195       8.83964376       0.68600000       0.24000000
In      -0.02973227       8.82165182       8.85004172       0.68000000       0.24000000
In       2.89042744       8.74159706       5.92551222       0.68600000       0.24000000
In       5.96880668      -0.12744149      -0.23883741       0.63300000       0.22000000
In       8.83181485       0.00365553       2.90523818       0.68600000       0.24000000
In       6.17158111       3.17879512       3.11736251       0.63300000       0.22000000
In       8.88337959       2.92677013      -0.03886017       0.68600000       0.24000000
In       5.88673290      -0.00034200       5.84070877       0.68700000       0.24000000
In       8.82786387      -0.04858808       8.84704874       0.67800000       0.24000000
In       5.89290973       2.94027570       8.78376922       0.68700000       0.24000000
In       8.89495473       2.96274328       5.91941023       0.67800000       0.24000000
In       5.88145227       5.92215979      -0.03613268       0.68700000       0.24000000
In       8.87349717       5.91745096       2.95447117       0.67800000       0.24000000
In       5.87815169       8.84586181       2.92220648       0.68700000       0.24000000
In       8.83228850       8.84553253      -0.01201163       0.67800000       0.24000000
In       5.90094608       5.94582254       5.92039734       0.66100000       0.23000000
In       8.84194765       5.89417854       8.83546020       0.67900000       0.24000000
In       5.90525202       8.79114917       8.76020973       0.66100000       0.23000000
In       8.83635495       8.83922771       5.87581880       0.67900000       0.24000000
P        3.89941509       0.94391310       0.66027638      -0.45200000      -0.16000000
65
Lattice="11.801682 -8e-06 -8e-06 -8e-06 11.801682 -8e-06 -8e-06 -8e-06 11.801682" Properties=species:S:1:pos:R:3:mulliken_charges:R:1:hirshfeld_charges:R:1 fermi_energy=3.718544537463 core_to_fermi_energy=15.690571930710242 config_type=Interstitial pbc="T T T"
P        1.35263611       1.45730697       4.50052878      -0.64200000      -0.23000000
P        4.61423257       1.35068091       2.56515853      -0.45200000      -0.16000000
P        1.47062171       4.40241113       1.43948509      -0.64200000      -0.23000000
P        4.42148758       4.51333046       4.47192479      -0.66200000      -0.24000000
P        1.38065249       1.46385013      10.16115079      -0.64200000      -0.23000000
P        4.41221907       1.45664503       7.32207363      -0.67600000      -0.24000000
P        1.46959369       4.40605076       7.32699883      -0.67400000      -0.24000000
P        4.45363125       4.45482613      10.25462425      -0.67200000      -0.23000000
P        1.44452747       7.33673700       4.37229201      -0.67400000      -0.24000000
P        4.41266611       7.37722840       1.44404013      -0.67600000      -0.24000000
P        1.44595379      10.28541233       1.46199510      -0.64200000      -0.23000000
P        4.41016047      10.17779785       4.53193106      -0.67200000      -0.23000000
P        1.45340766       7.35974364      10.32174359      -0.67400000      -0.24000000
P        4.39319073       7.31894471       7.38752740      -0.68100000      -0.24000000
P        1.41788211      10.27354324       7.33965346      -0.67400000      -0.24000000
P        4.39506644      10.22569328      10.16734227      -0.66200000      -0.24000000
P        7.44287581       1.49499064       4.46493343      -0.67600000      -0.24000000
P       10.33011198       1.45661049       1.44073214      -0.67700000      -0.24000000
P        7.43709328       4.48817397       1.39813311      -0.67600000      -0.24000000
P       10.33175936       4.40755024       4.39607151      -0.67400000      -0.24000000
P        7.37634835       1.48696366      10.27540483      -0.67600000      -0.24000000
P       10.26474326       1.43365450       7.38215406      -0.68000000      -0.24000000
P        7.38266025       4.42809287       7.34912474      -0.67500000      -0.24000000
P       10.32194442       4.41707169      10.29209281      -0.67600000      -0.24000000
P        7.36349619       7.37617439       4.39864428      -0.67500000      -0.24000000
P       10.29951340       7.36005856       1.44112839      -0.68000000      -0.24000000
P        7.32744320      10.33609140       1.43086369      -0.67600000      -0.24000000
P       10.28097752      10.30351887       4.36947796      -0.67600000      -0.24000000
P        7.37654358       7.37854782      10.29226083      -0.67500000      -0.24000000
P       10.31375911       7.35840593       7.34732336      -0.67500000      -0.24000000
P        7.36670107      10.31683283       7.33375484      -0.67500000      -0.24000000
P       10.32376166      10.31398777      10.33072555      -0.67400000      -0.24000000
In       0.02995619       0.01100542      -0.03616691       0.67600000       0.24000000
In       2.74572942      -0.22534326       3.22971854       0.73400000       0.26000000
In      -0.00126695       2.92068686       2.91810672       0.67600000       0.24000000
In       2.80181923       3.06526361      -0.26005086       0.73400000       0.26000000
In      -0.10740468      -0.05481635       5.92089498       0.65600000       0.23000000
In       2.91164145      -0.03369117       8.76733591       0.68200000       0.25000000
In      -0.06722989       2.95609556       8.74908520       0.65600000       0.23000000
In       2.95448819       2.92553323       5.83552975       0.68200000       0.25000000
In      -0.02212336       5.88881803      -0.01369139       0.65600000       0.23000000
In       2.95543618       5.88253144       2.90712635       0.68200000       0.25000000
In      -0.03975685       8.81737584       2.90974224       0.65600000       0.23000000
In       2.95179501       8.85395888      -0.04072385       0.68200000       0.25000000
In      -0.00806260       5.88298198       5.87280257       0.68000000       0.24000000
In       2.90134025       5.88070709       8.83460047       0.68600000       0.24000000
In      -0.03169291       8.82387284       8.84927459       0.68000000       0.24000000
In       2.88741515       8.72977685       5.93817384       0.68600000       0.24000000
In       5.92186455      -0.11375533      -0.21578802       0.63300000       0.22000000
In       8.81503042       0.01293694       2.90794316       0.68600000       0.24000000
In       6.12221209       3.21827436       3.11627270       0.63300000       0.22000000
In       8.87187900       2.92342426      -0.03760230       0.68600000       0.24000000
In       5.89021793      -0.00123449       5.84073982       0.68700000       0.24000000
In       8.82654709      -0.04849064       8.85185083       0.67800000       0.24000000
In       5.89377303       2.93787491       8.78577840       0.68700000       0.24000000
In       8.89290070       2.95128504       5.91586283       0.67800000       0.24000000
In       5.88510482       5.93166104      -0.03628292       0.68700000       0.24000000
In       8.87196512       5.91818845       2.95410437       0.67800000       0.24000000
In       5.87633929       8.85225486       2.92739771       0.68700000       0.24000000
In       8.83043164       8.85208854      -0.00946266       0.67800000       0.24000000
In       5.91015533       5.94366932       5.92295636       0.66100000       0.23000000
In       8.84290234       5.89191119       8.83500054       0.67900000       0.24000000
In       5.91039572       8.79319634       8.76072817       0.66100000       0.23000000
In       8.84027524       8.83989989       5.87433240       0.67900000       0.24000000
P        3.84215593       0.99592324       0.65650650      -0.45200000      -0.16000000
65