65
Lattice="11.801682 -8e-06 -8e-06 -8e-06 11.801682 -8e-06 -8e-06 -8e-06 11.801682" Properties=species:S:1:pos:R:3:mulliken_charges:R:1:hirshfeld_charges:R:1 fermi_energy=3.718544537463 core_to_fermi_energy=15.690571930710242 config_type=Interstitial pbc="T T T"
P        1.39948131       1.38370890       4.40188893      -0.64200000      -0.23000000
P        4.46246473       1.35900355       1.35900355      -0.45200000      -0.16000000
P        1.39948131       4.40188893       1.38370890      -0.64200000      -0.23000000
P        3.96571632       5.16046478       5.16046478      -0.66200000      -0.24000000
P        1.46289583       1.45678424      10.31569412      -0.64200000      -0.23000000
P        4.41014491       1.46233610       7.34350363      -0.67600000      -0.24000000
P        1.39954085       4.40391558       7.42205314      -0.67400000      -0.24000000
P        4.41216725       4.40292130      10.30375722      -0.67200000      -0.23000000
P        1.39954085       7.42205314       4.40391558      -0.67400000      -0.24000000
P        4.41014491       7.34350363       1.46233610      -0.67600000      -0.24000000
P        1.46289583      10.31569412       1.45678424      -0.64200000      -0.23000000
P        4.41216725      10.30375722       4.40292130      -0.67200000      -0.23000000
P        1.46292305       7.34902450      10.29178940      -0.67400000      -0.24000000
P        4.46253318       7.44694686       7.44694686      -0.68100000      -0.24000000
P        1.46292305      10.29178940       7.34902450      -0.67400000      -0.24000000
P        4.35561389      10.30379483      10.30379483      -0.66200000      -0.24000000
P        7.42382740       1.41705871       4.43180800      -0.67600000      -0.24000000
P       10.31337104       1.44452334       1.44452334      -0.67700000      -0.24000000
P        7.42382740       4.43180800       1.41705871      -0.67600000      -0.24000000
P       10.35239978       4.40291528       4.40291528      -0.67400000      -0.24000000
P        7.36244348       1.44264517      10.29046902      -0.67600000      -0.24000000
P       10.32839106       1.44262944       7.36321430      -0.68000000      -0.24000000
P        7.42387755       4.37403480       7.38881696      -0.67500000      -0.24000000
P       10.27857007       4.40291370      10.30376169      -0.67600000      -0.24000000
P        7.42387755       7.38881696       4.37403480      -0.67500000      -0.24000000
P       10.32839106       7.36321430       1.44262944      -0.68000000      -0.24000000
P        7.36244348      10.29046902       1.44264517      -0.67600000      -0.24000000
P       10.27857007      10.30376169       4.40291370      -0.67600000      -0.24000000
P        7.36246692       7.36320421      10.31707558      -0.67500000      -0.24000000
P       10.31340304       7.36130591       7.36130591      -0.67500000      -0.24000000
P        7.36246692      10.31707558       7.36320421      -0.67500000      -0.24000000
P       10.31254643      10.30375293      10.30375293      -0.67400000      -0.24000000
In      -0.00719240      -0.02795988      -0.02795988       0.67600000       0.24000000
In       2.96201235      -0.00453663       2.91255200       0.73400000       0.26000000
In       0.00174867       2.91287393       2.91287393       0.67600000       0.24000000
In       2.96201235       2.91255200      -0.00453663       0.73400000       0.26000000
In      -0.04677949      -0.07111305       5.88627610       0.65600000       0.23000000
In       2.91693452      -0.00731577       8.81314039       0.68200000       0.25000000
In      -0.04677079       2.91961497       8.87693521       0.65600000       0.23000000
In       2.78920609       2.84498658       5.96076375       0.68200000       0.25000000
In      -0.04677949       5.88627610      -0.07111305       0.65600000       0.23000000
In       2.78920609       5.96076375       2.84498658       0.68200000       0.25000000
In      -0.04677079       8.87693521       2.91961497       0.65600000       0.23000000
In       2.91693452       8.81314039      -0.00731577       0.68200000       0.25000000
In       0.00177207       5.89295967       5.89295967       0.68000000       0.24000000
In       2.96205133       5.89327156       8.81030233       0.68600000       0.24000000
In      -0.00718181       8.83381618       8.83381618       0.68000000       0.24000000
In       2.96205133       8.81030233       5.89327156       0.68600000       0.24000000
In       5.89958924      -0.09216118      -0.09216118       0.63300000       0.22000000
In       8.84724946      -0.03822083       2.90658446       0.68600000       0.24000000
In       6.09826364       2.76478165       2.76478165       0.63300000       0.22000000
In       8.84724946       2.90658446      -0.03822083       0.68600000       0.24000000
In       5.87940648      -0.02666217       5.87804836       0.68700000       0.24000000
In       8.84524787      -0.01786821       8.82373951       0.67800000       0.24000000
In       5.87939898       2.92781246       8.83250074       0.68700000       0.24000000
In       8.89217942       2.93151868       5.87431179       0.67800000       0.24000000
In       5.87940648       5.87804836      -0.02666217       0.68700000       0.24000000
In       8.89217942       5.87431179       2.93151868       0.67800000       0.24000000
In       5.87939898       8.83250074       2.92781246       0.68700000       0.24000000
In       8.84524787       8.82373951      -0.01786821       0.67800000       0.24000000
In       6.09839979       6.04118027       6.04118027       0.66100000       0.23000000
In       8.84727450       5.89928137       8.84407942       0.67900000       0.24000000
In       5.89962799       8.89811449       8.89811449       0.66100000       0.23000000
In       8.84727450       8.84407942       5.89928137       0.67900000       0.24000000
P        3.96569633       3.64571659       3.64571659      -0.45200000      -0.16000000
65
Lattice="11.801682 -8e-06 -8e-06 -8e-06 11.801682 -8e-06 -8e-06 -8e-06 11.801682" Properties=species:S:1:pos:R:3:mulliken_charges:R:1:hirshfeld_charges:R:1 fermi_energy=3.718544537463 core_to_fermi_energy=15.690571930710242 config_type=Interstitial pbc="T T T"
P        1.41961056       1.36482418       4.37262906      -0.64200000      -0.23000000
P        4.47988345       1.28966727       1.28882120      -0.45200000      -0.16000000
P        1.41961056       4.37347513       1.36397810      -0.64200000      -0.23000000
P        3.95008951       5.03283433       5.03198825      -0.66200000      -0.24000000
P        1.46905862       1.42547273      10.28541437      -0.64200000      -0.23000000
P        4.41163594       1.42279801       7.30813069      -0.67600000      -0.24000000
P        1.38315505       4.37669158       7.40439562      -0.67400000      -0.24000000
P        4.41366516       4.36261815      10.26547971      -0.67200000      -0.23000000
P        1.38315505       7.40524169       4.37584550      -0.67400000      -0.24000000
P        4.41163594       7.30897677       1.42195194      -0.67600000      -0.24000000
P        1.46905862      10.28626044       1.42462665      -0.64200000      -0.23000000
P        4.41366516      10.26632578       4.36177208      -0.67200000      -0.23000000
P        1.45478726       7.31768503      10.26374998      -0.67400000      -0.24000000
P        4.44235869       7.38063317       7.37978709      -0.68100000      -0.24000000
P        1.45478726      10.26459605       7.31683896      -0.67400000      -0.24000000
P        4.35737079      10.24580005      10.24495398      -0.66200000      -0.24000000
P        7.43650967       1.36913210       4.38874260      -0.67600000      -0.24000000
P       10.32661340       1.40972356       1.40887748      -0.67700000      -0.24000000
P        7.43650967       4.38958868       1.36828603      -0.67600000      -0.24000000
P       10.35350873       4.36454851       4.36370244      -0.67400000      -0.24000000
P        7.37170210       1.39905933      10.24429132      -0.67600000      -0.24000000
P       10.32789718       1.40197185       7.31975563      -0.68000000      -0.24000000
P        7.40880028       4.33490789       7.33650398      -0.67500000      -0.24000000
P       10.27704672       4.36461487      10.26212628      -0.67600000      -0.24000000
P        7.40880028       7.33735006       4.33406181      -0.67500000      -0.24000000
P       10.32789718       7.32060171       1.40112578      -0.68000000      -0.24000000
P        7.37170210      10.24513740       1.39821325      -0.67600000      -0.24000000
P       10.27704672      10.26297236       4.36376880      -0.67600000      -0.24000000
P        7.35529806       7.31941339      10.27098506      -0.67500000      -0.24000000
P       10.30418863       7.32388634       7.32304026      -0.67500000      -0.24000000
P        7.35529806      10.27183113       7.31856732      -0.67500000      -0.24000000
P       10.31307559      10.26603129      10.26518521      -0.67400000      -0.24000000
In      -0.00172383      -0.06679748      -0.06764356       0.67600000       0.24000000
In       2.97519582      -0.02731742       2.87727509       0.73400000       0.26000000
In       0.01486220       2.88088860       2.88004252       0.67600000       0.24000000
In       2.97519582       2.87812117      -0.02816349       0.73400000       0.26000000
In      -0.04324045      -0.10183399       5.83557995       0.65600000       0.23000000
In       2.91699190      -0.04215992       8.78068490       0.68200000       0.25000000
In      -0.05198183       2.87243564       8.84389826       0.65600000       0.23000000
In       2.78588767       2.82610062       5.95343997       0.68200000       0.25000000
In      -0.04324045       5.83642602      -0.10268006       0.65600000       0.23000000
In       2.78588767       5.95428605       2.82525455       0.68200000       0.25000000
In      -0.05198183       8.84474433       2.87158956       0.65600000       0.23000000
In       2.91699190       8.78153098      -0.04300599       0.68200000       0.25000000
In      -0.00503978       5.85786875       5.85702268       0.68000000       0.24000000
In       2.95040977       5.86065875       8.79139867       0.68600000       0.24000000
In      -0.01264333       8.79416666       8.79332058       0.68000000       0.24000000
In       2.95040977       8.79224475       5.85981268       0.68600000       0.24000000
In       5.91564805      -0.15943769      -0.16028377       0.63300000       0.22000000
In       8.85719025      -0.08080897       2.85946853       0.68600000       0.24000000
In       6.12702623       2.69537295       2.69452688       0.63300000       0.22000000
In       8.85719025       2.86031460      -0.08165504       0.68600000       0.24000000
In       5.87923659      -0.06337146       5.83379266       0.68700000       0.24000000
In       8.84627897      -0.06538859       8.77513657       0.67800000       0.24000000
In       5.88302264       2.88573402       8.79430894       0.68700000       0.24000000
In       8.89111112       2.89448108       5.83500911       0.67800000       0.24000000
In       5.87923659       5.83463874      -0.06421753       0.68700000       0.24000000
In       8.89111112       5.83585519       2.89363500       0.67800000       0.24000000
In       5.88302264       8.79515502       2.88488795       0.68700000       0.24000000
In       8.84627897       8.77598264      -0.06623466       0.67800000       0.24000000
In       6.05602951       5.96745736       5.96661129       0.66100000       0.23000000
In       8.83749460       5.85414846       8.79783776       0.67900000       0.24000000
In       5.88726119       8.83038206       8.82953598       0.66100000       0.23000000
In       8.83749460       8.79868384       5.85330238       0.67900000       0.24000000
P        3.96468678       3.52016311       3.51931703      -0.45200000      -0.16000000
65
Lattice="11.801682 -8e-06 -8e-06 -8e-06 11.801682 -8e-06 -8e-06 -8e-06 11.801682" Properties=species:S:1:pos:R:3:mulliken_charges:R:1:hirshfeld_charges:R:1 fermi_energy=3.718544537463 core_to_fermi_energy=15.690571930710242 config_type=Interstitial pbc="T T T"
P        1.46018669       1.37869366       4.36547942      -0.64200000      -0.23000000
P        4.48804903       1.21699932       1.21575016      -0.45200000      -0.16000000
P        1.46018669       4.36672858       1.37744450      -0.64200000      -0.23000000
P        3.93136098       4.83364295       4.83239379      -0.66200000      -0.24000000
P        1.46049548       1.40956298      10.26747534      -0.64200000      -0.23000000
P        4.41081287       1.41010073       7.30874834      -0.67600000      -0.24000000
P        1.36433339       4.39211781       7.41026508      -0.67400000      -0.24000000
P        4.40985555       4.34882307      10.25261091      -0.67200000      -0.23000000
P        1.36433339       7.41151424       4.39086865      -0.67400000      -0.24000000
P        4.41081287       7.30999750       1.40885157      -0.67600000      -0.24000000
P        1.46049548      10.26872450       1.40831382      -0.64200000      -0.23000000
P        4.40985555      10.25386007       4.34757391      -0.67200000      -0.23000000
P        1.44474312       7.31752352      10.26453843      -0.67400000      -0.24000000
P        4.41831448       7.31094943       7.30970027      -0.68100000      -0.24000000
P        1.44474312      10.26578759       7.31627436      -0.67400000      -0.24000000
P        4.38116126      10.20957025      10.20832109      -0.66200000      -0.24000000
P        7.47608635       1.33808144       4.37368403      -0.67600000      -0.24000000
P       10.35084691       1.41052989       1.40928073      -0.67700000      -0.24000000
P        7.47608635       4.37493319       1.33683228      -0.67600000      -0.24000000
P       10.34736557       4.35605590       4.35480674      -0.67400000      -0.24000000
P        7.38804787       1.39331516      10.22311633      -0.67600000      -0.24000000
P       10.32660456       1.38476130       7.30653400      -0.68000000      -0.24000000
P        7.38568173       4.33166679       7.30671699      -0.67500000      -0.24000000
P       10.28807895       4.36678844      10.23992475      -0.67600000      -0.24000000
P        7.38568173       7.30796615       4.33041763      -0.67500000      -0.24000000
P       10.32660456       7.30778316       1.38351214      -0.68000000      -0.24000000
P        7.38804787      10.22436550       1.39206600      -0.67600000      -0.24000000
P       10.28807895      10.24117391       4.36553928      -0.67600000      -0.24000000
P        7.32734537       7.29650275      10.26009165      -0.67500000      -0.24000000
P       10.28383475       7.32139156       7.32014240      -0.67500000      -0.24000000
P        7.32734537      10.26134081       7.29525359      -0.67500000      -0.24000000
P       10.29909377      10.25496652      10.25371736      -0.67400000      -0.24000000
In      -0.00936186      -0.07886676      -0.08011592       0.67600000       0.24000000
In       2.98047542      -0.05022129       2.85306275       0.73400000       0.26000000
In       0.03910835       2.88931081       2.88806165       0.67600000       0.24000000
In       2.98047542       2.85431191      -0.05147045       0.73400000       0.26000000
In      -0.02738536      -0.09079012       5.80821602       0.65600000       0.23000000
In       2.92408832      -0.06383010       8.78279555       0.68200000       0.25000000
In      -0.05645554       2.86041686       8.82532236       0.65600000       0.23000000
In       2.77341136       2.83846233       5.99735261       0.68200000       0.25000000
In      -0.02738536       5.80946518      -0.09203928       0.65600000       0.23000000
In       2.77341136       5.99860177       2.83721317       0.68200000       0.25000000
In      -0.05645554       8.82657152       2.85916770       0.65600000       0.23000000
In       2.92408832       8.78404471      -0.06507926       0.68200000       0.25000000
In      -0.03287158       5.85456348       5.85331432       0.68000000       0.24000000
In       2.93539250       5.86234000       8.80199930       0.68600000       0.24000000
In      -0.02364308       8.78564036       8.78439120       0.68000000       0.24000000
In       2.93539250       8.80324846       5.86109084       0.68600000       0.24000000
In       5.95801747      -0.20290675      -0.20415591       0.63300000       0.22000000
In       8.89265905      -0.10998156       2.84132903       0.68600000       0.24000000
In       6.20382136       2.62430576       2.62305660       0.63300000       0.22000000
In       8.89265905       2.84257819      -0.11123072       0.68600000       0.24000000
In       5.86941117      -0.05572051       5.80032845       0.68700000       0.24000000
In       8.83572352      -0.08937969       8.75006968       0.67800000       0.24000000
In       5.88770608       2.87839700       8.77986552       0.68700000       0.24000000
In       8.89112691       2.88847549       5.83808035       0.67800000       0.24000000
In       5.86941117       5.80157761      -0.05696967       0.68700000       0.24000000
In       8.89112691       5.83932951       2.88722633       0.67800000       0.24000000
In       5.88770608       8.78111468       2.87714784       0.68700000       0.24000000
In       8.83572352       8.75131884      -0.09062886       0.67800000       0.24000000
In       5.97622145       5.86833652       5.86708736       0.66100000       0.23000000
In       8.81505619       5.84495062       8.78567484       0.67900000       0.24000000
In       5.86574270       8.76643459       8.76518543       0.66100000       0.23000000
In       8.81505619       8.78692400       5.84370146       0.67900000       0.24000000
P        3.97777735       3.32969624       3.32844708      -0.45200000      -0.16000000
65
Lattice="11.801682 -8e-06 -8e-06 -8e-06 11.801682 -8e-06 -8e-06 -8e-06 11.801682" Properties=species:S:1:pos:R:3:mulliken_charges:R:1:hirshfeld_charges:R:1 fermi_energy=3.718544537463 core_to_fermi_energy=15.690571930710242 config_type=Interstitial pbc="T T T"
P        1.45278691       1.38520763       4.35521246      -0.64200000      -0.23000000
P        4.33156625       1.22314571       1.22182356      -0.45200000      -0.16000000
P        1.45278691       4.35653462       1.38388548      -0.64200000      -0.23000000
P        4.02139293       4.69328415       4.69196199      -0.66200000      -0.24000000
P        1.41738463       1.38066629      10.22075416      -0.64200000      -0.23000000
P        4.40701167       1.41074198       7.30860494      -0.67600000      -0.24000000
P        1.38839207       4.38429719       7.37250557      -0.67400000      -0.24000000
P        4.39734625       4.34253546      10.25074897      -0.67200000      -0.23000000
P        1.38839207       7.37382773       4.38297503      -0.67400000      -0.24000000
P        4.40701167       7.30992709       1.40941982      -0.67600000      -0.24000000
P        1.41738463      10.22207631       1.37934414      -0.64200000      -0.23000000
P        4.39734625      10.25207112       4.34121330      -0.67200000      -0.23000000
P        1.45060219       7.30865288      10.25134070      -0.67400000      -0.24000000
P        4.43162626       7.29894592       7.29762377      -0.68100000      -0.24000000
P        1.45060219      10.25266285       7.30733073      -0.67400000      -0.24000000
P        4.40920278      10.25434107      10.25301891      -0.66200000      -0.24000000
P        7.54065527       1.31610806       4.42022083      -0.67600000      -0.24000000
P       10.33411210       1.40306333       1.40174117      -0.67700000      -0.24000000
P        7.54065527       4.42154299       1.31478590      -0.67600000      -0.24000000
P       10.33544515       4.35809277       4.35677062      -0.67400000      -0.24000000
P        7.37270922       1.40758659      10.24083367      -0.67600000      -0.24000000
P       10.31953071       1.37383041       7.33074448      -0.68000000      -0.24000000
P        7.38832141       4.34496974       7.32293399      -0.67500000      -0.24000000
P       10.31109977       4.38227845      10.22920587      -0.67600000      -0.24000000
P        7.38832141       7.32425614       4.34364759      -0.67500000      -0.24000000
P       10.31953071       7.33206663       1.37250826      -0.68000000      -0.24000000
P        7.37270922      10.24215582       1.40626444      -0.67600000      -0.24000000
P       10.31109977      10.23052802       4.38095630      -0.67600000      -0.24000000
P        7.30745296       7.29513118      10.26870789      -0.67500000      -0.24000000
P       10.28722531       7.31984506       7.31852290      -0.67500000      -0.24000000
P        7.30745296      10.27003004       7.29380903      -0.67500000      -0.24000000
P       10.28251196      10.24400824      10.24268609      -0.67400000      -0.24000000
In      -0.03462845      -0.08864450      -0.08996665       0.67600000       0.24000000
In       2.89680893      -0.12197359       2.85280214       0.73400000       0.26000000
In       0.01302431       2.88317683       2.88185468       0.67600000       0.24000000
In       2.89680893       2.85412429      -0.12329575       0.73400000       0.26000000
In      -0.02295406      -0.07407663       5.82028800       0.65600000       0.23000000
In       2.93206172      -0.08670457       8.77783248       0.68200000       0.25000000
In      -0.05238599       2.87710552       8.79276577       0.65600000       0.23000000
In       2.80851140       2.84633231       5.95261150       0.68200000       0.25000000
In      -0.02295406       5.82161015      -0.07539879       0.65600000       0.23000000
In       2.80851140       5.95393366       2.84501016       0.68200000       0.25000000
In      -0.05238599       8.79408793       2.87578337       0.65600000       0.23000000
In       2.93206172       8.77915463      -0.08802672       0.68200000       0.25000000
In      -0.03667272       5.85038371       5.84906156       0.68000000       0.24000000
In       2.93889577       5.85623089       8.78218985       0.68600000       0.24000000
In      -0.02194004       8.78216540       8.78084325       0.68000000       0.24000000
In       2.93889577       8.78351200       5.85490874       0.68600000       0.24000000
In       5.93740872      -0.10964098      -0.11096314       0.63300000       0.22000000
In       8.91273375      -0.13786660       2.84663230       0.68600000       0.24000000
In       6.36433728       2.74325180       2.74192964       0.63300000       0.22000000
In       8.91273375       2.84795445      -0.13918876       0.68600000       0.24000000
In       5.85075047      -0.04375083       5.78799360       0.68700000       0.24000000
In       8.80703571      -0.09273137       8.76604027       0.67800000       0.24000000
In       5.88430934       2.88284584       8.77963962       0.68700000       0.24000000
In       8.91398557       2.90194459       5.88422060       0.67800000       0.24000000
In       5.85075047       5.78931576      -0.04507298       0.68700000       0.24000000
In       8.91398557       5.88554275       2.90062244       0.67800000       0.24000000
In       5.88430934       8.78096177       2.88152369       0.68700000       0.24000000
In       8.80703571       8.76736242      -0.09405352       0.67800000       0.24000000
In       5.96642573       5.83765153       5.83632938       0.66100000       0.23000000
In       8.81472577       5.86273163       8.79821894       0.67900000       0.24000000
In       5.85006522       8.78328987       8.78196771       0.66100000       0.23000000
In       8.81472577       8.79954109       5.86140948       0.67900000       0.24000000
P        4.03426516       3.14258903       3.14126688      -0.45200000      -0.16000000
65
Lattice="11.801682 -8e-06 -8e-06 -8e-06 11.801682 -8e-06 -8e-06 -8e-06 11.801682" Properties=species:S:1:pos:R:3:mulliken_charges:R:1:hirshfeld_charges:R:1 fermi_energy=3.718544537463 core_to_fermi_energy=15.690571930710242 config_type=Interstitial pbc="T T T"
P        1.46217672       1.40849808       4.37387244      -0.64200000      -0.23000000
P        4.13515205       1.18849402       1.18732996      -0.45200000      -0.16000000
P        1.46217672       4.37503650       1.40733402      -0.64200000      -0.23000000
P        4.13428601       4.59459441       4.59343035      -0.66200000      -0.24000000
P        1.39647799       1.38684177      10.20889291      -0.64200000      -0.23000000
P        4.40317075       1.42681994       7.32215946      -0.67600000      -0.24000000
P        1.39625533       4.39685250       7.37426705      -0.67400000      -0.24000000
P        4.40321146       4.35676655      10.26080697      -0.67200000      -0.23000000
P        1.39625533       7.37543111       4.39568844      -0.67400000      -0.24000000
P        4.40317075       7.32332353       1.42565588      -0.67600000      -0.24000000
P        1.39647799      10.21005697       1.38567771      -0.64200000      -0.23000000
P        4.40321146      10.26197103       4.35560249      -0.67200000      -0.23000000
P        1.44963813       7.32001789      10.26410470      -0.67400000      -0.24000000
P        4.42215140       7.30358594       7.30242188      -0.68100000      -0.24000000
P        1.44963813      10.26526876       7.31885383      -0.67400000      -0.24000000
P        4.42215549      10.28120854      10.28004448      -0.66200000      -0.24000000
P        7.56694630       1.32612478       4.45610574      -0.67600000      -0.24000000
P       10.33789638       1.41372682       1.41256276      -0.67700000      -0.24000000
P        7.56694630       4.45726980       1.32496072      -0.67600000      -0.24000000
P       10.33786343       4.36984662       4.36868256      -0.67400000      -0.24000000
P        7.37882766       1.42149693      10.25354231      -0.67600000      -0.24000000
P       10.31546131       1.38504738       7.34368412      -0.68000000      -0.24000000
P        7.37875701       4.36191622       7.32924080      -0.67500000      -0.24000000
P       10.31538804       4.39839540      10.23908700      -0.67600000      -0.24000000
P        7.37875701       7.33040486       4.36075216      -0.67500000      -0.24000000
P       10.31546131       7.34484818       1.38388332      -0.68000000      -0.24000000
P        7.37882766      10.25470637       1.42033287      -0.67600000      -0.24000000
P       10.31538804      10.24025106       4.39723134      -0.67600000      -0.24000000
P        7.30170798       7.30330775      10.28068103      -0.67500000      -0.24000000
P       10.28217983       7.33247469       7.33131063      -0.67500000      -0.24000000
P        7.30170798      10.28184509       7.30214369      -0.67500000      -0.24000000
P       10.28227068      10.25278938      10.25162532      -0.67400000      -0.24000000
In      -0.03868460      -0.08192510      -0.08308916       0.67600000       0.24000000
In       2.84261916      -0.15746088       2.89554148       0.73400000       0.26000000
In       0.01673273       2.89182373       2.89065967       0.67600000       0.24000000
In       2.84261916       2.89670554      -0.15862494       0.73400000       0.26000000
In      -0.02144718      -0.05226747       5.83450356       0.65600000       0.23000000
In       2.93546934      -0.08132834       8.79019202       0.68200000       0.25000000
In      -0.05721005       2.89168569       8.79150280       0.65600000       0.23000000
In       2.84214232       2.88681643       5.94027454       0.68200000       0.25000000
In      -0.02144718       5.83566762      -0.05343153       0.65600000       0.23000000
In       2.84214232       5.94143860       2.88565237       0.68200000       0.25000000
In      -0.05721005       8.79266686       2.89052163       0.65600000       0.23000000
In       2.93546934       8.79135608      -0.08249240       0.68200000       0.25000000
In      -0.03882622       5.86555217       5.86438811       0.68000000       0.24000000
In       2.93547523       5.86494984       8.79282620       0.68600000       0.24000000
In      -0.02207749       8.79261947       8.79145541       0.68000000       0.24000000
In       2.93547523       8.79399026       5.86378578       0.68600000       0.24000000
In       5.94028033      -0.05558494      -0.05674901       0.63300000       0.22000000
In       8.92279063      -0.12830226       2.85797643       0.68600000       0.24000000
In       6.44150171       2.89116527       2.89000121       0.63300000       0.22000000
In       8.92279063       2.85914050      -0.12946632       0.68600000       0.24000000
In       5.84519628      -0.01865260       5.80108436       0.68700000       0.24000000
In       8.80728983      -0.08834900       8.77485089       0.67800000       0.24000000
In       5.88819200       2.89176310       8.79149926       0.68700000       0.24000000
In       8.92275133       2.92430026       5.91058607       0.67800000       0.24000000
In       5.84519628       5.80224842      -0.01981666       0.68700000       0.24000000
In       8.92275133       5.91175013       2.92313620       0.67800000       0.24000000
In       5.88819200       8.79266332       2.89059904       0.68700000       0.24000000
In       8.80728983       8.77601495      -0.08951306       0.67800000       0.24000000
In       5.94010944       5.83851263       5.83734857       0.66100000       0.23000000
In       8.80719676       5.87179629       8.80794176       0.67900000       0.24000000
In       5.84311000       8.79240792       8.79124386       0.66100000       0.23000000
In       8.80719676       8.80910582       5.87063223       0.67900000       0.24000000
P        4.06977108       2.89222631       2.89106225      -0.45200000      -0.16000000
65