63
Lattice="11.8016818 -7.6e-06 -7.6e-06 -7.6e-06 11.8016818 -7.8e-06 -7.6e-06 -7.8e-06 11.8016816" Properties=species:S:1:pos:R:3:mulliken_charges:R:1 virial="-0.001343979365248383 3.847269175329341e-05 3.847269175329341e-05 3.847269175329341e-05 -0.001345261788306826 3.847269175329341e-05 3.847269175329341e-05 3.847269175329341e-05 -0.0013426969421899398" fermi_energy=3.4539138232004998 core_to_fermi_energy=15.43004959127955 config_type=Accurate_Bulk pbc="T T T"
P        1.51255209       1.51255201       4.42677531      -0.67500000
P        4.42677544       1.51255214       1.51255209      -0.67500000
P        1.51255211       4.42677540       1.51255199      -0.67500000
In      -0.00101055      -0.00101057      -0.00101056       0.67500000
In       2.94758182       0.00287023       2.94758179       0.67500000
In       0.00287029       2.94758178       2.94758175       0.67500000
In       2.94758183       2.94758183       0.00287026       0.67500000
P        1.47596847       1.47596829      10.32237682      -0.67500000
P        4.42447860       1.51254683       7.33870282      -0.67500000
P        1.51254698       4.42447848       7.33870275      -0.67500000
P        4.42562178       4.42562159      10.32646364      -0.67500000
In       0.01697768       0.01697759       5.89520717       0.67500000
In       2.95604867       0.01697145       8.83427933       0.67500000
In       0.01697162       2.95604851       8.83427925       0.67500000
In       3.07248207       3.07248188       5.77877607       0.67500000
P        1.51254695       7.33870289       4.42447841      -0.67500000
P        4.42447860       7.33870292       1.51254679      -0.67500000
P        1.47596846      10.32237700       1.47596823      -0.67500000
P        4.42562178      10.32646381       4.42562151      -0.67500000
In       0.01697769       5.89520727       0.01697760       0.67500000
In       3.07248207       5.77877622       3.07248188       0.67500000
In       0.01697161       8.83427941       2.95604846       0.67500000
In       2.95604867       8.83427948       0.01697146       0.67500000
P        1.47596414       7.37527858      10.33056012      -0.67500000
P        4.42676859       7.33869538       7.33869527      -0.67500000
P        1.47596413      10.33056029       7.37527848      -0.67500000
P        4.42561615      10.32646163      10.32646145      -0.67500000
In       0.00286517       5.90367344       5.90367332       0.67500000
In       2.94757422       5.90367009       8.84838371       0.67500000
In      -0.00102195       8.85226769       8.85226753       0.67500000
In       2.94757422       8.84838389       5.90366998       0.67500000
P        7.33870293       1.51254691       4.42447850      -0.67500000
P       10.32237699       1.47596846       1.47596841      -0.67500000
P        7.33870290       4.42447856       1.51254689      -0.67500000
P       10.32646383       4.42562169       4.42562161      -0.67500000
In       5.89520729       0.01697771       0.01697772       0.67500000
In       8.83427946       0.01697156       2.95604860       0.67500000
In       5.77877620       3.07248208       3.07248208       0.67500000
In       8.83427946       2.95604865       0.01697157       0.67500000
P        7.37527874       1.47596397      10.33056029      -0.67500000
P       10.33056044       1.47596398       7.37527864      -0.67500000
P        7.33869552       4.42676846       7.33869534      -0.67500000
P       10.32646180       4.42561600      10.32646156      -0.67500000
In       5.90367354       0.00286504       5.90367342       0.67500000
In       8.85226786      -0.00102212       8.85226767       0.67500000
In       5.90367023       2.94757408       8.84838378       0.67500000
In       8.84838402       2.94757411       5.90367007       0.67500000
P        7.33869555       7.33869547       4.42676836      -0.67500000
P       10.33056045       7.37527874       1.47596394      -0.67500000
P        7.37527875      10.33056046       1.47596392      -0.67500000
P       10.32646180      10.32646173       4.42561593      -0.67500000
In       5.90367353       5.90367353       0.00286507       0.67500000
In       8.84838403       5.90367019       2.94757408       0.67500000
In       5.90367024       8.84838396       2.94757404       0.67500000
In       8.85226786       8.85226784      -0.00102211       0.67500000
P        7.37527286       7.37527267      10.32236418      -0.67500000
P       10.32236451       7.37527273       7.37527261      -0.67500000
P        7.37527286      10.32236436       7.37527257      -0.67500000
P       10.32645758      10.32645742      10.32645725      -0.67500000
In       5.77876091       5.77876073       5.77876058       0.67500000
In       8.83427068       5.89519677       8.83427044       0.67500000
In       5.89519692       8.83427051       8.83427036       0.67500000
In       8.83427069       8.83427060       5.89519667       0.67500000
63
Lattice="11.8016818 -7.6e-06 -7.6e-06 -7.6e-06 11.8016818 -7.8e-06 -7.6e-06 -7.8e-06 11.8016816" Properties=species:S:1:pos:R:3:mulliken_charges:R:1 virial="-0.001343979365248383 3.847269175329341e-05 3.847269175329341e-05 3.847269175329341e-05 -0.001345261788306826 3.847269175329341e-05 3.847269175329341e-05 3.847269175329341e-05 -0.0013426969421899398" fermi_energy=3.4539138232004998 core_to_fermi_energy=15.43004959127955 config_type=Accurate_Bulk pbc="T T T"
P        1.51427027       1.60166833       4.46992752      -0.67500000
P        4.46993069       1.60166815       1.51426422      -0.67500000
P        1.52364993       4.46512305       1.52364976      -0.67500000
In       0.02365854       0.04542988       0.02365861       0.67500000
In       2.98759940       0.13206645       2.98760705       0.67500000
In      -0.00004059       3.00605077       2.95902727       0.67500000
In       2.95902695       3.00605127      -0.00004081       0.67500000
P        1.49851230       1.50997033      10.33229757      -0.67500000
P        4.43250167       1.54710148       7.37266262      -0.67500000
P        1.49694671       4.52244350       7.40774987      -0.67500000
P        4.43815584       4.49006638      10.33121588      -0.67500000
In       0.03144853       0.05184425       5.90187702       0.67500000
In       2.97153478       0.03079672       8.85444158       0.67500000
In       0.02930473       2.99349469       8.86011586       0.67500000
In       3.02787804       3.12972607       5.89984603       0.67500000
P        1.54972441       7.36187144       4.42237273      -0.67500000
P        4.42237284       7.36187158       1.54972428      -0.67500000
P        1.52378074      10.42103736       1.52378025      -0.67500000
P        4.43342349      10.39349972       4.43342302      -0.67500000
In       0.03022859       5.93443524       0.03022848       0.67500000
In       3.12525003       5.74640200       3.12524992       0.67500000
In       0.07173005       8.88801741       2.96367693       0.67500000
In       2.96367712       8.88801743       0.07172993       0.67500000
P        1.48421582       7.44464098      10.36847612      -0.67500000
P        4.45539794       7.38959526       7.32713226      -0.67500000
P        1.48530598      10.36054324       7.38381046      -0.67500000
P        4.44031031      10.34665938      10.34975697      -0.67500000
In       0.01326389       5.96730193       5.90895809       0.67500000
In       2.97452613       6.00558756       8.87563261       0.67500000
In       0.00152094       8.89601076       8.87027129       0.67500000
In       2.96134904       8.89315191       5.90117686       0.67500000
P        7.37266267       1.54710156       4.43250161      -0.67500000
P       10.33229764       1.50997050       1.49851199      -0.67500000
P        7.40774935       4.52244287       1.49694728      -0.67500000
P       10.33121598       4.49006680       4.43815586      -0.67500000
In       5.90187695       0.05184519       0.03144902       0.67500000
In       8.85444178       0.03079687       2.97153478       0.67500000
In       5.89984793       3.12972783       3.02787866       0.67500000
In       8.86011603       2.99349478       0.02930475       0.67500000
P        7.38381146       1.52234590      10.35420979      -0.67500000
P       10.35420973       1.52234597       7.38381166      -0.67500000
P        7.33466773       4.46081448       7.33466753      -0.67500000
P       10.33861927       4.46390218      10.33861877      -0.67500000
In       5.91400026       0.05609708       5.91400001       0.67500000
In       8.87144814       0.06185151       8.87144795       0.67500000
In       5.91594437       2.99373994       8.86871141       0.67500000
In       8.86871166       2.99373994       5.91594414       0.67500000
P        7.32713256       7.38959537       4.45539783      -0.67500000
P       10.36847657       7.44464122       1.48421571      -0.67500000
P        7.38381063      10.36054343       1.48530590      -0.67500000
P       10.34975721      10.34665935       4.44031032      -0.67500000
In       5.90895847       5.96730212       0.01326373       0.67500000
In       8.87563280       6.00558769       2.97452588       0.67500000
In       5.90117710       8.89315201       2.96134891       0.67500000
In       8.87027162       8.89601083       0.00152066       0.67500000
P        7.39436978       7.41703135      10.32521489      -0.67500000
P       10.32521528       7.41703131       7.39436959      -0.67500000
P        7.39294013      10.38765089       7.39293986      -0.67500000
P       10.34398200      10.38409195      10.34398166      -0.67500000
In       5.74385142       5.77327549       5.74385096       0.67500000
In       8.83642400       5.91866398       8.83642382       0.67500000
In       5.91978009       8.87781770       8.83660363       0.67500000
In       8.83660397       8.87781789       5.91977959       0.67500000
63
Lattice="11.8016818 -7.6e-06 -7.6e-06 -7.6e-06 11.8016818 -7.8e-06 -7.6e-06 -7.8e-06 11.8016816" Properties=species:S:1:pos:R:3:mulliken_charges:R:1 virial="-0.001343979365248383 3.847269175329341e-05 3.847269175329341e-05 3.847269175329341e-05 -0.001345261788306826 3.847269175329341e-05 3.847269175329341e-05 3.847269175329341e-05 -0.0013426969421899398" fermi_energy=3.4539138232004998 core_to_fermi_energy=15.43004959127955 config_type=Accurate_Bulk pbc="T T T"
P        1.45665822       1.69090393       4.54451249      -0.67500000
P        4.54451322       1.69090221       1.45665618      -0.67500000
P        1.49926842       4.41527724       1.49926828      -0.67500000
In       0.05347005      -0.00621245       0.05347005       0.67500000
In       3.04930706       0.38806827       3.04930869       0.67500000
In      -0.06605709       3.01023772       2.94805140       0.67500000
In       2.94805125       3.01023807      -0.06605753       0.67500000
P        1.49000159       1.46498378      10.31829266      -0.67500000
P        4.42905745       1.50501980       7.38630758      -0.67500000
P        1.46532443       4.56227397       7.46618087      -0.67500000
P        4.42930829       4.51263374      10.29231841      -0.67500000
In       0.02188684      -0.00671672       5.88728851       0.67500000
In       2.96474555      -0.02171323       8.85221278       0.67500000
In       0.02175638       2.95749187       8.85650355       0.67500000
In       3.00953163       3.16100669       6.01054521       0.67500000
P        1.56706009       7.32167858       4.38954071      -0.67500000
P        4.38954084       7.32167873       1.56706007      -0.67500000
P        1.61478633      10.52340745       1.61478620      -0.67500000
P        4.39900673      10.46603267       4.39900647      -0.67500000
In       0.01520257       5.89681495       0.01520242       0.67500000
In       3.12296873       5.65053035       3.12296853       0.67500000
In       0.13921034       8.89527602       2.92673365       0.67500000
In       2.92673387       8.89527603       0.13921023       0.67500000
P        1.46800717       7.45556481      10.40115032      -0.67500000
P        4.45365874       7.40775390       7.27845871      -0.67500000
P        1.47854178      10.31374452       7.37260728      -0.67500000
P        4.41634232      10.28706485      10.35690285      -0.67500000
In       0.01337220       5.96134306       5.89194648       0.67500000
In       2.97655978       6.07344147       8.87048033       0.67500000
In      -0.01868678       8.86961217       8.87244165       0.67500000
In       2.95615766       8.90430795       5.83658520       0.67500000
P        7.38630765       1.50501984       4.42905735      -0.67500000
P       10.31829291       1.46498399       1.49000162      -0.67500000
P        7.46618051       4.56227362       1.46532505      -0.67500000
P       10.29231877       4.51263384       4.42930823      -0.67500000
In       5.88728850      -0.00671624       0.02188698       0.67500000
In       8.85221293      -0.02171304       2.96474554       0.67500000
In       6.01054640       3.16100777       3.00953197       0.67500000
In       8.85650352       2.95749217       0.02175648       0.67500000
P        7.36269902       1.49446779      10.36167223      -0.67500000
P       10.36167250       1.49446779       7.36269876      -0.67500000
P        7.32734446       4.41659358       7.32734423      -0.67500000
P       10.32681170       4.42217401      10.32681152      -0.67500000
In       5.92192674       0.01832478       5.92192660       0.67500000
In       8.87461180       0.07090042       8.87461159       0.67500000
In       5.90211760       2.96740303       8.87379019       0.67500000
In       8.87379032       2.96740300       5.90211732       0.67500000
P        7.27845903       7.40775413       4.45365860      -0.67500000
P       10.40115065       7.45556489       1.46800704      -0.67500000
P        7.37260759      10.31374461       1.47854160      -0.67500000
P       10.35690318      10.28706505       4.41634213      -0.67500000
In       5.89194674       5.96134310       0.01337217       0.67500000
In       8.87048037       6.07344145       2.97655938       0.67500000
In       5.83658542       8.90430808       2.95615745       0.67500000
In       8.87244203       8.86961222      -0.01868697       0.67500000
P        7.39054412       7.38728531      10.31347835      -0.67500000
P       10.31347862       7.38728543       7.39054394      -0.67500000
P        7.40642929      10.37007733       7.40642904      -0.67500000
P       10.34633570      10.37849049      10.34633537      -0.67500000
In       5.74070523       5.73922938       5.74070470       0.67500000
In       8.82651267       5.87754893       8.82651245       0.67500000
In       5.91872325       8.85130590       8.82814490       0.67500000
In       8.82814535       8.85130608       5.91872295       0.67500000
63
Lattice="11.8016818 -7.6e-06 -7.6e-06 -7.6e-06 11.8016818 -7.8e-06 -7.6e-06 -7.8e-06 11.8016816" Properties=species:S:1:pos:R:3:mulliken_charges:R:1 virial="-0.001343979365248383 3.847269175329341e-05 3.847269175329341e-05 3.847269175329341e-05 -0.001345261788306826 3.847269175329341e-05 3.847269175329341e-05 3.847269175329341e-05 -0.0013426969421899398" fermi_energy=3.4539138232004998 core_to_fermi_energy=15.43004959127955 config_type=Accurate_Bulk pbc="T T T"
P        1.37654380       1.76013157       4.61665638      -0.67500000
P        4.61665512       1.76013658       1.37654690      -0.67500000
P        1.49370873       4.40151575       1.49370852      -0.67500000
In       0.08372739      -0.05286635       0.08372736       0.67500000
In       3.19795589       0.76091411       3.19795225       0.67500000
In      -0.10992348       3.03028258       2.93418205       0.67500000
In       2.93418359       3.03028115      -0.10992277       0.67500000
P        1.47510826       1.45636390      10.31911346      -0.67500000
P        4.44441089       1.48970861       7.40028831      -0.67500000
P        1.46521606       4.57733113       7.48069781      -0.67500000
P        4.43475082       4.53607346      10.27747226      -0.67500000
In       0.00218108      -0.06003428       5.89672461       0.67500000
In       2.96454935      -0.02100076       8.86629059       0.67500000
In       0.01973566       2.95684140       8.85373419       0.67500000
In       3.01991206       3.16951873       6.05841233       0.67500000
P        1.58941207       7.31716069       4.37727841      -0.67500000
P        4.37727881       7.31716063       1.58941175      -0.67500000
P        1.68326149      10.59090194       1.68326185      -0.67500000
P        4.35260603      10.56575785       4.35260600      -0.67500000
In       0.01232464       5.89432856       0.01232430       0.67500000
In       3.13360173       5.60838100       3.13360148       0.67500000
In       0.18335438       8.90175841       2.89062622       0.67500000
In       2.89062618       8.90175885       0.18335430       0.67500000
P        1.46730075       7.45444118      10.40597704      -0.67500000
P        4.45166260       7.43566837       7.25569887      -0.67500000
P        1.49277483      10.30408032       7.37777662      -0.67500000
P        4.39676905      10.25565724      10.36119244      -0.67500000
In       0.02754310       5.97357929       5.88755155       0.67500000
In       2.98368142       6.09732649       8.85841269       0.67500000
In      -0.01661066       8.87119493       8.87877039       0.67500000
In       2.96524979       8.94090428       5.79468309       0.67500000
P        7.40028798       1.48970907       4.44441041      -0.67500000
P       10.31911383       1.45636424       1.47510861      -0.67500000
P        7.48069949       4.57733333       1.46521316      -0.67500000
P       10.27747215       4.53607325       4.43474981      -0.67500000
In       5.89672584      -0.06003649       0.00217948       0.67500000
In       8.86629030      -0.02100059       2.96454901       0.67500000
In       6.05840535       3.16951650       3.01991359       0.67500000
In       8.85373446       2.95684135       0.01973613       0.67500000
P        7.35563394       1.48943058      10.36906993      -0.67500000
P       10.36907016       1.48943052       7.35563362      -0.67500000
P        7.33230207       4.42040753       7.33230198      -0.67500000
P       10.32428391       4.41944783      10.32428483      -0.67500000
In       5.92056553      -0.01247545       5.92056541       0.67500000
In       8.87194600       0.09160566       8.87194492       0.67500000
In       5.90750462       2.97069042       8.88037895       0.67500000
In       8.88037927       2.97069020       5.90750441       0.67500000
P        7.25569976       7.43566875       4.45166169      -0.67500000
P       10.40597701       7.45444108       1.46730040      -0.67500000
P        7.37777706      10.30408047       1.49277402      -0.67500000
P       10.36119286      10.25565737       4.39676821      -0.67500000
In       5.88755124       5.97357926       0.02754345       0.67500000
In       8.85841423       6.09732665       2.98368220       0.67500000
In       5.79468370       8.94090439       2.96524939       0.67500000
In       8.87877069       8.87119535      -0.01661075       0.67500000
P        7.39116595       7.38990293      10.32012826      -0.67500000
P       10.32012823       7.38990322       7.39116573      -0.67500000
P        7.41212593      10.36722194       7.41212565      -0.67500000
P       10.34355877      10.38508224      10.34355840      -0.67500000
In       5.74543174       5.74974296       5.74543069       0.67500000
In       8.83016828       5.88376823       8.83016782       0.67500000
In       5.92007412       8.84782958       8.82847959       0.67500000
In       8.82847998       8.84782959       5.92007441       0.67500000
63
Lattice="11.8016818 -7.6e-06 -7.6e-06 -7.6e-06 11.8016818 -7.8e-06 -7.6e-06 -7.8e-06 11.8016816" Properties=species:S:1:pos:R:3:mulliken_charges:R:1 virial="-0.001343979365248383 3.847269175329341e-05 3.847269175329341e-05 3.847269175329341e-05 -0.001345261788306826 3.847269175329341e-05 3.847269175329341e-05 3.847269175329341e-05 -0.0013426969421899398" fermi_energy=3.4539138232004998 core_to_fermi_energy=15.43004959127955 config_type=Accurate_Bulk pbc="T T T"
P        1.31354782       1.75678618       4.63973453      -0.67500000
P        4.63977866       1.75683112       1.31347456      -0.67500000
P        1.47745596       4.36729168       1.47745451      -0.67500000
In       0.08031347      -0.07679341       0.08031549       0.67500000
In       3.36434047       1.14943739       3.36443274       0.67500000
In      -0.13574402       3.01782061       2.93000905       0.67500000
In       2.93000744       3.01781852      -0.13573924       0.67500000
P        1.46764228       1.43942491      10.31095304      -0.67500000
P        4.44403950       1.46241582       7.41053075      -0.67500000
P        1.46376639       4.56764623       7.47903139      -0.67500000
P        4.43124160       4.53161033      10.26433567      -0.67500000
In      -0.01060946      -0.10136850       5.89788315       0.67500000
In       2.95567723      -0.04559207       8.86766626       0.67500000
In       0.01507984       2.94271485       8.84603678       0.67500000
In       3.02209812       3.14500802       6.07223756       0.67500000
P        1.59848754       7.29168334       4.37128986      -0.67500000
P        4.37129129       7.29168164       1.59848517      -0.67500000
P        1.66878926      10.55190566       1.66878168      -0.67500000
P        4.29664351      10.62647846       4.29664044      -0.67500000
In       0.00438445       5.88037500       0.00438266       0.67500000
In       3.12108946       5.54974055       3.12109138       0.67500000
In       0.19077401       8.87765963       2.88371628       0.67500000
In       2.88371124       8.87765786       0.19077375       0.67500000
P        1.45888492       7.44001804      10.40280546      -0.67500000
P        4.44849181       7.43035461       7.25058113      -0.67500000
P        1.49569686      10.27950101       7.36810528      -0.67500000
P        4.38870870      10.22796813      10.35864920      -0.67500000
In       0.02507355       5.96118714       5.88370812       0.67500000
In       2.97426089       6.09660658       8.85774018       0.67500000
In      -0.02053327       8.85744839       8.87197274       0.67500000
In       2.97872905       8.94486008       5.76316909       0.67500000
P        7.41052562       1.46242014       4.44403561      -0.67500000
P       10.31095006       1.43942535       1.46763739      -0.67500000
P        7.47902827       4.56764688       1.46375544      -0.67500000
P       10.26432743       4.53161794       4.43123580      -0.67500000
In       5.89788569      -0.10136714      -0.01060976       0.67500000
In       8.86766809      -0.04559165       2.95567865       0.67500000
In       6.07223316       3.14499792       3.02211538       0.67500000
In       8.84604347       2.94271443       0.01508013       0.67500000
P        7.34842894       1.47119658      10.36863932      -0.67500000
P       10.36863143       1.47119564       7.34843784      -0.67500000
P        7.33245904       4.39970195       7.33246110      -0.67500000
P       10.31844712       4.40275019      10.31845086      -0.67500000
In       5.90016929      -0.04499766       5.90016912       0.67500000
In       8.86730546       0.08373758       8.86729766       0.67500000
In       5.90272572       2.95364718       8.87994883       0.67500000
In       8.87995451       2.95364626       5.90272557       0.67500000
P        7.25058165       7.43035447       4.44848916      -0.67500000
P       10.40280291       7.44001798       1.45888342      -0.67500000
P        7.36810458      10.27950207       1.49569648      -0.67500000
P       10.35864716      10.22796510       4.38870768      -0.67500000
In       5.88370829       5.96118850       0.02507491       0.67500000
In       8.85774781       6.09660651       2.97426988       0.67500000
In       5.76316898       8.94486115       2.97873381       0.67500000
In       8.87197447       8.85744868      -0.02053474       0.67500000
P        7.38839690       7.37492446      10.31525597      -0.67500000
P       10.31525422       7.37492533       7.38839620      -0.67500000
P        7.40538474      10.35809622       7.40538569      -0.67500000
P       10.33328962      10.37012147      10.33329117      -0.67500000
In       5.74673189       5.73491303       5.74673146       0.67500000
In       8.82614669       5.86748075       8.82614497       0.67500000
In       5.92093562       8.83612967       8.82444120       0.67500000
In       8.82444395       8.83612992       5.92093532       0.67500000
63
Lattice="11.8016818 -7.6e-06 -7.6e-06 -7.6e-06 11.8016818 -7.8e-06 -7.6e-06 -7.8e-06 11.8016816" Properties=species:S:1:pos:R:3:mulliken_charges:R:1 virial="-0.001343979365248383 3.847269175329341e-05 3.847269175329341e-05 3.847269175329341e-05 -0.001345261788306826 3.847269175329341e-05 3.847269175329341e-05 3.847269175329341e-05 -0.0013426969421899398" fermi_energy=3.4539138232004998 core_to_fermi_energy=15.43004959127955 config_type=Accurate_Bulk pbc="T T T"
P        1.26859430       1.75330292       4.65731204      -0.67500000
P        4.65714133       1.75337492       1.26895654      -0.67500000
P        1.47393190       4.36196316       1.47393957      -0.67500000
In       0.08218435      -0.07974944       0.08217927       0.67500000
In       3.42681124       1.56957294       3.42629989       0.67500000
In      -0.14838491       3.01903296       2.93486217       0.67500000
In       2.93488839       3.01901047      -0.14837519       0.67500000
P        1.46317053       1.44140662      10.31016669      -0.67500000
P        4.45368338       1.45414735       7.42524250      -0.67500000
P        1.46310229       4.57271459       7.48194767      -0.67500000
P        4.43558539       4.54053883      10.26040079      -0.67500000
In      -0.01439291      -0.12186783       5.90163059       0.67500000
In       2.95641801      -0.04517248       8.87485450       0.67500000
In       0.01161779       2.94579654       8.84469119       0.67500000
In       3.02080308       3.12633886       6.09292789       0.67500000
P        1.60781209       7.28458527       4.37219520      -0.67500000
P        4.37219744       7.28458547       1.60781562      -0.67500000
P        1.67752560      10.54683412       1.67754043      -0.67500000
P        4.27105825      10.65912146       4.27107451      -0.67500000
In       0.00169426       5.88405771       0.00169075       0.67500000
In       3.12649152       5.52142704       3.12648837       0.67500000
In       0.19965667       8.86799793       2.88567399       0.67500000
In       2.88567899       8.86799295       0.19964919       0.67500000
P        1.45879199       7.44174474      10.40571498      -0.67500000
P        4.44793436       7.43747374       7.26010071      -0.67500000
P        1.50512754      10.27607267       7.36868888      -0.67500000
P        4.38369158      10.21951467      10.36222983      -0.67500000
In       0.02826983       5.96719763       5.88456891       0.67500000
In       2.97283419       6.09982888       8.86151068       0.67500000
In      -0.01515426       8.86140846       8.87186826       0.67500000
In       2.99631709       8.95844517       5.74615632       0.67500000
P        7.42524908       1.45414779       4.45368698      -0.67500000
P       10.31017313       1.44140414       1.46318802      -0.67500000
P        7.48198527       4.57275053       1.46308728      -0.67500000
P       10.26041370       4.54051856       4.43558917      -0.67500000
In       5.90163743      -0.12190923      -0.01441320       0.67500000
In       8.87484802      -0.04517312       2.95641156       0.67500000
In       6.09282865       3.12626191       3.02078102       0.67500000
In       8.84468533       2.94580070       0.01160753       0.67500000
P        7.34727825       1.46884758      10.37252537      -0.67500000
P       10.37254747       1.46885244       7.34725229      -0.67500000
P        7.33557767       4.40504524       7.33557325      -0.67500000
P       10.31644314       4.40670874      10.31645197      -0.67500000
In       5.88725005      -0.06105428       5.88725467       0.67500000
In       8.86882760       0.09014358       8.86884603       0.67500000
In       5.90723875       2.95556245       8.88321829       0.67500000
In       8.88321065       2.95556450       5.90724143       0.67500000
P        7.26010446       7.43747434       4.44793179      -0.67500000
P       10.40571296       7.44174113       1.45879385      -0.67500000
P        7.36869454      10.27607016       1.50512434      -0.67500000
P       10.36223422      10.21952199       4.38368025      -0.67500000
In       5.88455993       5.96719299       0.02827055       0.67500000
In       8.86149981       6.09982998       2.97281854       0.67500000
In       5.74615912       8.95843956       2.99630844       0.67500000
In       8.87186295       8.86141315      -0.01515008       0.67500000
P        7.39051970       7.37920349      10.31895978      -0.67500000
P       10.31895765       7.37920758       7.39051398      -0.67500000
P        7.40784238      10.36031237       7.40783641      -0.67500000
P       10.33407271      10.37067729      10.33406938      -0.67500000
In       5.76049836       5.76488269       5.76050365       0.67500000
In       8.82742597       5.87401115       8.82742625       0.67500000
In       5.92462782       8.84158950       8.82908982       0.67500000
In       8.82908500       8.84158357       5.92464054       0.67500000
63