63
Lattice="11.8016818 -7.6e-06 -7.6e-06 -7.6e-06 11.8016818 -7.8e-06 -7.6e-06 -7.8e-06 11.8016816" Properties=species:S:1:pos:R:3:mulliken_charges:R:1 virial="-0.001343979365248383 3.847269175329341e-05 3.847269175329341e-05 3.847269175329341e-05 -0.001345261788306826 3.847269175329341e-05 3.847269175329341e-05 3.847269175329341e-05 -0.0013426969421899398" fermi_energy=3.4539138232004998 core_to_fermi_energy=15.43004959127955 config_type=Accurate_Bulk pbc="T T T"
P        1.51255209       1.51255201       4.42677531      -0.67500000
P        4.42677544       1.51255214       1.51255209      -0.67500000
P        1.51255211       4.42677540       1.51255199      -0.67500000
In      -0.00101055      -0.00101057      -0.00101056       0.67500000
In       2.94758182       0.00287023       2.94758179       0.67500000
In       0.00287029       2.94758178       2.94758175       0.67500000
In       2.94758183       2.94758183       0.00287026       0.67500000
P        1.47596847       1.47596829      10.32237682      -0.67500000
P        4.42447860       1.51254683       7.33870282      -0.67500000
P        1.51254698       4.42447848       7.33870275      -0.67500000
P        4.42562178       4.42562159      10.32646364      -0.67500000
In       0.01697768       0.01697759       5.89520717       0.67500000
In       2.95604867       0.01697145       8.83427933       0.67500000
In       0.01697162       2.95604851       8.83427925       0.67500000
In       3.07248207       3.07248188       5.77877607       0.67500000
P        1.51254695       7.33870289       4.42447841      -0.67500000
P        4.42447860       7.33870292       1.51254679      -0.67500000
P        1.47596846      10.32237700       1.47596823      -0.67500000
P        4.42562178      10.32646381       4.42562151      -0.67500000
In       0.01697769       5.89520727       0.01697760       0.67500000
In       3.07248207       5.77877622       3.07248188       0.67500000
In       0.01697161       8.83427941       2.95604846       0.67500000
In       2.95604867       8.83427948       0.01697146       0.67500000
P        1.47596414       7.37527858      10.33056012      -0.67500000
P        4.42676859       7.33869538       7.33869527      -0.67500000
P        1.47596413      10.33056029       7.37527848      -0.67500000
P        4.42561615      10.32646163      10.32646145      -0.67500000
In       0.00286517       5.90367344       5.90367332       0.67500000
In       2.94757422       5.90367009       8.84838371       0.67500000
In      -0.00102195       8.85226769       8.85226753       0.67500000
In       2.94757422       8.84838389       5.90366998       0.67500000
P        7.33870293       1.51254691       4.42447850      -0.67500000
P       10.32237699       1.47596846       1.47596841      -0.67500000
P        7.33870290       4.42447856       1.51254689      -0.67500000
P       10.32646383       4.42562169       4.42562161      -0.67500000
In       5.89520729       0.01697771       0.01697772       0.67500000
In       8.83427946       0.01697156       2.95604860       0.67500000
In       5.77877620       3.07248208       3.07248208       0.67500000
In       8.83427946       2.95604865       0.01697157       0.67500000
P        7.37527874       1.47596397      10.33056029      -0.67500000
P       10.33056044       1.47596398       7.37527864      -0.67500000
P        7.33869552       4.42676846       7.33869534      -0.67500000
P       10.32646180       4.42561600      10.32646156      -0.67500000
In       5.90367354       0.00286504       5.90367342       0.67500000
In       8.85226786      -0.00102212       8.85226767       0.67500000
In       5.90367023       2.94757408       8.84838378       0.67500000
In       8.84838402       2.94757411       5.90367007       0.67500000
P        7.33869555       7.33869547       4.42676836      -0.67500000
P       10.33056045       7.37527874       1.47596394      -0.67500000
P        7.37527875      10.33056046       1.47596392      -0.67500000
P       10.32646180      10.32646173       4.42561593      -0.67500000
In       5.90367353       5.90367353       0.00286507       0.67500000
In       8.84838403       5.90367019       2.94757408       0.67500000
In       5.90367024       8.84838396       2.94757404       0.67500000
In       8.85226786       8.85226784      -0.00102211       0.67500000
P        7.37527286       7.37527267      10.32236418      -0.67500000
P       10.32236451       7.37527273       7.37527261      -0.67500000
P        7.37527286      10.32236436       7.37527257      -0.67500000
P       10.32645758      10.32645742      10.32645725      -0.67500000
In       5.77876091       5.77876073       5.77876058       0.67500000
In       8.83427068       5.89519677       8.83427044       0.67500000
In       5.89519692       8.83427051       8.83427036       0.67500000
In       8.83427069       8.83427060       5.89519667       0.67500000
63
Lattice="11.8016818 -7.6e-06 -7.6e-06 -7.6e-06 11.8016818 -7.8e-06 -7.6e-06 -7.8e-06 11.8016816" Properties=species:S:1:pos:R:3:mulliken_charges:R:1 virial="-0.001343979365248383 3.847269175329341e-05 3.847269175329341e-05 3.847269175329341e-05 -0.001345261788306826 3.847269175329341e-05 3.847269175329341e-05 3.847269175329341e-05 -0.0013426969421899398" fermi_energy=3.4539138232004998 core_to_fermi_energy=15.43004959127955 config_type=Accurate_Bulk pbc="T T T"
P        1.56951816       1.56951810       4.42024481      -0.67500000
P        4.46521351       1.53833456       1.48118552      -0.67500000
P        1.53833452       4.46521348       1.48118543      -0.67500000
In       0.02183119       0.02183119       0.01523220       0.67500000
In       3.00281392       0.04347238       2.94372240       0.67500000
In       0.04347244       3.00281385       2.94372236       0.67500000
In       2.96707602       2.96707600      -0.01627308       0.67500000
P        1.48834465       1.48834449      10.32012982      -0.67500000
P        4.47188938       1.50009069       7.39773182      -0.67500000
P        1.50009082       4.47188926       7.39773174      -0.67500000
P        4.45342448       4.45342432      10.32331347      -0.67500000
In       0.05907010       0.05906998       5.85686160       0.67500000
In       2.97240731       0.00785923       8.85595931       0.67500000
In       0.00785941       2.97240715       8.85595926       0.67500000
In       3.03766404       3.03766389       5.94091675       0.67500000
P        1.53382800       7.35343827       4.42077818      -0.67500000
P        4.45922628       7.37166311       1.51819263      -0.67500000
P        1.50399403      10.35911904       1.49923454      -0.67500000
P        4.45084201      10.34608877       4.42618297      -0.67500000
In       0.03264317       5.92824793      -0.00965990       0.67500000
In       3.09645630       5.81005051       3.05236899       0.67500000
In       0.03769189       8.85699942       2.95985315       0.67500000
In       2.97378972       8.86346694       0.04048683       0.67500000
P        1.50245051       7.42263778      10.32947627      -0.67500000
P        4.46166605       7.34004420       7.30436343      -0.67500000
P        1.49711475      10.36262666       7.35447616      -0.67500000
P        4.45094555      10.32231990      10.32911098      -0.67500000
In       0.01991477       5.92710914       5.90124411       0.67500000
In       2.98636984       5.95485394       8.85814557       0.67500000
In       0.02439312       8.89129243       8.84220036       0.67500000
In       2.96933425       8.86263683       5.90278868       0.67500000
P        7.35343832       1.53382795       4.42077828      -0.67500000
P       10.35911904       1.50399403       1.49923469      -0.67500000
P        7.37166309       4.45922627       1.51819271      -0.67500000
P       10.34608882       4.45084195       4.42618307      -0.67500000
In       5.92824794       0.03264317      -0.00965978       0.67500000
In       8.85699948       0.03769183       2.95985330       0.67500000
In       5.81005051       3.09645632       3.05236917       0.67500000
In       8.86346694       2.97378971       0.04048695       0.67500000
P        7.42263794       1.50245035      10.32947638      -0.67500000
P       10.36262678       1.49711463       7.35447632      -0.67500000
P        7.34004435       4.46166592       7.30436352      -0.67500000
P       10.32232006       4.45094538      10.32911108      -0.67500000
In       5.92710926       0.01991465       5.90124421       0.67500000
In       8.89129259       0.02439295       8.84220052       0.67500000
In       5.95485411       2.98636967       8.85814563       0.67500000
In       8.86263696       2.96933411       5.90278879       0.67500000
P        7.36384670       7.36384664       4.43814177      -0.67500000
P       10.35782595       7.40338798       1.46763943      -0.67500000
P        7.40338798      10.35782594       1.46763938      -0.67500000
P       10.34969744      10.34969739       4.42868097      -0.67500000
In       5.92616155       5.92616152       0.00809496       0.67500000
In       8.87601595       5.94540340       2.95364329       0.67500000
In       5.94540346       8.87601588       2.95364325       0.67500000
In       8.87524840       8.87524839      -0.00956110       0.67500000
P        7.39440558       7.39440542      10.32033857      -0.67500000
P       10.34746827       7.39819720       7.38230571      -0.67500000
P        7.39819731      10.34746816       7.38230567      -0.67500000
P       10.35503252      10.35503236      10.32869015      -0.67500000
In       5.74327545       5.74327526       5.67889409       0.67500000
In       8.83671383       5.91501059       8.81748313       0.67500000
In       5.91501074       8.83671364       8.81748306       0.67500000
In       8.85957406       8.85957394       5.90949319       0.67500000
63
Lattice="11.8016818 -7.6e-06 -7.6e-06 -7.6e-06 11.8016818 -7.8e-06 -7.6e-06 -7.8e-06 11.8016816" Properties=species:S:1:pos:R:3:mulliken_charges:R:1 virial="-0.001343979365248383 3.847269175329341e-05 3.847269175329341e-05 3.847269175329341e-05 -0.001345261788306826 3.847269175329341e-05 3.847269175329341e-05 3.847269175329341e-05 -0.0013426969421899398" fermi_energy=3.4539138232004998 core_to_fermi_energy=15.43004959127955 config_type=Accurate_Bulk pbc="T T T"
P        1.67464162       1.67464157       4.37888164      -0.67500000
P        4.47425527       1.50787890       1.40852135      -0.67500000
P        1.50787889       4.47425525       1.40852127      -0.67500000
In       0.00728608       0.00728607       0.03850476       0.67500000
In       3.04398360       0.05377074       2.92667260       0.67500000
In       0.05377080       3.04398354       2.92667256       0.67500000
In       2.94731224       2.94731222      -0.05196271       0.67500000
P        1.45757152       1.45757136      10.31389695      -0.67500000
P        4.48625814       1.44523268       7.46957578      -0.67500000
P        1.44523280       4.48625803       7.46957572      -0.67500000
P        4.44596952       4.44596935      10.31894930      -0.67500000
In       0.12310273       0.12310261       5.76604944       0.67500000
In       2.94796973      -0.04682376       8.87782934       0.67500000
In      -0.04682359       2.94796957       8.87782929       0.67500000
In       2.98900718       2.98900705       6.13762106       0.67500000
P        1.51049965       7.32846463       4.42193875      -0.67500000
P        4.44721666       7.36187449       1.52892634      -0.67500000
P        1.49290316      10.36416866       1.53744147      -0.67500000
P        4.43723708      10.33345818       4.43165201      -0.67500000
In       0.00226455       5.94502560      -0.06549325       0.67500000
In       3.04052871       5.79848471       3.00612945       0.67500000
In       0.01386119       8.84197093       2.97059938       0.67500000
In       2.95309055       8.86211078       0.07778317       0.67500000
P        1.49454747       7.45541981      10.32069242      -0.67500000
P        4.45051756       7.32342638       7.29179890      -0.67500000
P        1.47798774      10.37575176       7.31417997      -0.67500000
P        4.43552641      10.27764454      10.33477046      -0.67500000
In      -0.00261967       5.91377422       5.90971734       0.67500000
In       2.98271578       5.97035241       8.87646125       0.67500000
In       0.01054425       8.90993359       8.82153312       0.67500000
In       2.94874122       8.84221872       5.89954125       0.67500000
P        7.32846469       1.51049959       4.42193886      -0.67500000
P       10.36416866       1.49290316       1.53744161      -0.67500000
P        7.36187447       4.44721665       1.52892642      -0.67500000
P       10.33345824       4.43723703       4.43165211      -0.67500000
In       5.94502561       0.00226455      -0.06549314       0.67500000
In       8.84197100       0.01386113       2.97059953       0.67500000
In       5.79848474       3.04052869       3.00612958       0.67500000
In       8.86211078       2.95309054       0.07778328       0.67500000
P        7.45541997       1.49454731      10.32069253      -0.67500000
P       10.37575189       1.47798762       7.31418013      -0.67500000
P        7.32342653       4.45051743       7.29179897      -0.67500000
P       10.27764470       4.43552625      10.33477057      -0.67500000
In       5.91377434      -0.00261978       5.90971743       0.67500000
In       8.90993376       0.01054408       8.82153327       0.67500000
In       5.97035258       2.98271561       8.87646130       0.67500000
In       8.84221886       2.94874108       5.89954135       0.67500000
P        7.36998011       7.36998005       4.44096932      -0.67500000
P       10.34653499       7.38908327       1.46206713      -0.67500000
P        7.38908327      10.34653499       1.46206708      -0.67500000
P       10.35765457      10.35765452       4.43960952      -0.67500000
In       5.90954686       5.90954684       0.02187009       0.67500000
In       8.86754516       5.93648448       2.95986136       0.67500000
In       5.93648453       8.86754510       2.95986131       0.67500000
In       8.85929854       8.85929853      -0.00821454       0.67500000
P        7.37470157       7.37470141      10.32904943      -0.67500000
P       10.33252218       7.38659947       7.39530366      -0.67500000
P        7.38659957      10.33252207       7.39530361      -0.67500000
P       10.34552506      10.34552491      10.33800823      -0.67500000
In       5.73153508       5.73153491       5.64954985       0.67500000
In       8.80671867       5.90061493       8.81514675       0.67500000
In       5.90061510       8.80671849       8.81514668       0.67500000
In       8.86111081       8.86111069       5.92294383       0.67500000
63
Lattice="11.8016818 -7.6e-06 -7.6e-06 -7.6e-06 11.8016818 -7.8e-06 -7.6e-06 -7.8e-06 11.8016816" Properties=species:S:1:pos:R:3:mulliken_charges:R:1 virial="-0.001343979365248383 3.847269175329341e-05 3.847269175329341e-05 3.847269175329341e-05 -0.001345261788306826 3.847269175329341e-05 3.847269175329341e-05 3.847269175329341e-05 -0.0013426969421899398" fermi_energy=3.4539138232004998 core_to_fermi_energy=15.43004959127955 config_type=Accurate_Bulk pbc="T T T"
P        1.90555292       1.90555288       4.23995031      -0.67500000
P        4.49539256       1.48296927       1.35570401      -0.67500000
P        1.48296925       4.49539254       1.35570393      -0.67500000
In       0.00853709       0.00853708       0.04841084       0.67500000
In       3.08085246       0.06761794       2.91696695       0.67500000
In       0.06761799       3.08085241       2.91696689       0.67500000
In       2.94723932       2.94723929      -0.05768885       0.67500000
P        1.45419765       1.45419749      10.31544501      -0.67500000
P        4.50076156       1.43060125       7.50153052      -0.67500000
P        1.43060137       4.50076145       7.50153046      -0.67500000
P        4.45048072       4.45048056      10.32508522      -0.67500000
In       0.15329363       0.15329349       5.72609221       0.67500000
In       2.94811498      -0.05866598       8.89293263       0.67500000
In      -0.05866581       2.94811481       8.89293258       0.67500000
In       2.93820856       2.93820843       6.26425711       0.67500000
P        1.50717368       7.32509997       4.42623041      -0.67500000
P        4.44702583       7.36495883       1.53560190      -0.67500000
P        1.49435533      10.38127604       1.56410084      -0.67500000
P        4.43478977      10.34040284       4.43867358      -0.67500000
In      -0.00976996       5.96175347      -0.10295938       0.67500000
In       3.00302217       5.80124261       2.96927440       0.67500000
In       0.01072656       8.83647109       2.97403611       0.67500000
In       2.95352738       8.87302433       0.10121340       0.67500000
P        1.50368797       7.47611217      10.32034421      -0.67500000
P        4.45371744       7.32633156       7.29359682      -0.67500000
P        1.48296794      10.38355227       7.30491928      -0.67500000
P        4.43421812      10.26227185      10.33521835      -0.67500000
In      -0.00512106       5.91469231       5.91732489       0.67500000
In       2.99276295       5.98061424       8.88875392       0.67500000
In       0.00908627       8.91485109       8.82353205       0.67500000
In       2.95050371       8.83859322       5.89929459       0.67500000
P        7.32510003       1.50717363       4.42623051      -0.67500000
P       10.38127603       1.49435533       1.56410098      -0.67500000
P        7.36495881       4.44702583       1.53560198      -0.67500000
P       10.34040289       4.43478973       4.43867368      -0.67500000
In       5.96175349      -0.00976997      -0.10295927       0.67500000
In       8.83647116       0.01072651       2.97403626       0.67500000
In       5.80124263       3.00302216       2.96927453       0.67500000
In       8.87302432       2.95352737       0.10121351       0.67500000
P        7.47611233       1.50368780      10.32034430      -0.67500000
P       10.38355240       1.48296781       7.30491943      -0.67500000
P        7.32633171       4.45371731       7.29359689      -0.67500000
P       10.26227200       4.43421795      10.33521845      -0.67500000
In       5.91469243      -0.00512118       5.91732498       0.67500000
In       8.91485126       0.00908610       8.82353219       0.67500000
In       5.98061441       2.99276277       8.88875397       0.67500000
In       8.83859335       2.95050357       5.89929469       0.67500000
P        7.37862866       7.37862861       4.43112425      -0.67500000
P       10.34898891       7.38483399       1.45741404      -0.67500000
P        7.38483400      10.34898891       1.45741400      -0.67500000
P       10.35263470      10.35263464       4.43715138      -0.67500000
In       5.91214985       5.91214983       0.03184054       0.67500000
In       8.87551733       5.93144889       2.96160019       0.67500000
In       5.93144894       8.87551726       2.96160015       0.67500000
In       8.85907807       8.85907806      -0.00265934       0.67500000
P        7.37441840       7.37441825      10.33501620      -0.67500000
P       10.33173984       7.38582531       7.40323057      -0.67500000
P        7.38582541      10.33173973       7.40323052      -0.67500000
P       10.34713258      10.34713242      10.34575544      -0.67500000
In       5.75513823       5.75513805       5.65700746       0.67500000
In       8.80098089       5.90162024       8.81773898       0.67500000
In       5.90162040       8.80098071       8.81773892       0.67500000
In       8.85394225       8.85394213       5.93169153       0.67500000
63
Lattice="11.8016818 -7.6e-06 -7.6e-06 -7.6e-06 11.8016818 -7.8e-06 -7.6e-06 -7.8e-06 11.8016816" Properties=species:S:1:pos:R:3:mulliken_charges:R:1 virial="-0.001343979365248383 3.847269175329341e-05 3.847269175329341e-05 3.847269175329341e-05 -0.001345261788306826 3.847269175329341e-05 3.847269175329341e-05 3.847269175329341e-05 -0.0013426969421899398" fermi_energy=3.4539138232004998 core_to_fermi_energy=15.43004959127955 config_type=Accurate_Bulk pbc="T T T"
P        2.15612834       2.15612831       4.07558318      -0.67500000
P        4.49216362       1.46198896       1.33703867      -0.67500000
P        1.46198896       4.49216360       1.33703859      -0.67500000
In       0.00238878       0.00238877       0.05373604       0.67500000
In       3.05723288       0.08596586       2.94326320       0.67500000
In       0.08596590       3.05723284       2.94326314       0.67500000
In       2.94337827       2.94337824      -0.06491642       0.67500000
P        1.44534504       1.44534487      10.31393862      -0.67500000
P        4.49252834       1.42475388       7.50834793      -0.67500000
P        1.42475400       4.49252823       7.50834788      -0.67500000
P        4.44785568       4.44785552      10.32132778      -0.67500000
In       0.07999149       0.07999135       5.77692327       0.67500000
In       2.94197550      -0.06687620       8.89845125       0.67500000
In      -0.06687603       2.94197533       8.89845120       0.67500000
In       2.90103928       2.90103916       6.27975056       0.67500000
P        1.49802146       7.31718904       4.42912467      -0.67500000
P        4.44167648       7.35615133       1.54249270      -0.67500000
P        1.49031917      10.38415037       1.57695154      -0.67500000
P        4.42350647      10.34057926       4.43837675      -0.67500000
In      -0.01921874       5.95675247      -0.11008177       0.67500000
In       2.97552479       5.79140739       2.95559553       0.67500000
In       0.00504524       8.82730740       2.97326960       0.67500000
In       2.95104185       8.86907547       0.11049829       0.67500000
P        1.49757645       7.47590886      10.32360724      -0.67500000
P        4.44761312       7.32186236       7.29294195      -0.67500000
P        1.48250509      10.36644821       7.31228631      -0.67500000
P        4.42760372      10.25051644      10.33398152      -0.67500000
In      -0.01381696       5.90460663       5.92350339       0.67500000
In       2.98682466       5.97958471       8.89092699       0.67500000
In       0.00155121       8.90721896       8.82706014       0.67500000
In       2.94811001       8.83082737       5.89546007       0.67500000
P        7.31718910       1.49802141       4.42912478      -0.67500000
P       10.38415037       1.49031918       1.57695168      -0.67500000
P        7.35615132       4.44167648       1.54249277      -0.67500000
P       10.34057931       4.42350642       4.43837685      -0.67500000
In       5.95675248      -0.01921875      -0.11008167       0.67500000
In       8.82730746       0.00504518       2.97326975       0.67500000
In       5.79140742       2.97552477       2.95559565       0.67500000
In       8.86907546       2.95104184       0.11049840       0.67500000
P        7.47590902       1.49757629      10.32360734      -0.67500000
P       10.36644835       1.48250496       7.31228644      -0.67500000
P        7.32186251       4.44761299       7.29294202      -0.67500000
P       10.25051660       4.42760355      10.33398163      -0.67500000
In       5.90460675      -0.01381708       5.92350348       0.67500000
In       8.90721914       0.00155104       8.82706028       0.67500000
In       5.97958488       2.98682449       8.89092703       0.67500000
In       8.83082751       2.94810987       5.89546017       0.67500000
P        7.37451872       7.37451867       4.43402849      -0.67500000
P       10.34357025       7.37928218       1.45665547      -0.67500000
P        7.37928219      10.34357025       1.45665543      -0.67500000
P       10.32599627      10.32599622       4.43000431      -0.67500000
In       5.90555446       5.90555444       0.03459439       0.67500000
In       8.87268539       5.92556614       2.96371993       0.67500000
In       5.92556620       8.87268533       2.96371988       0.67500000
In       8.85327580       8.85327579      -0.00274662       0.67500000
P        7.36764972       7.36764956      10.33622227      -0.67500000
P       10.32569837       7.38032850       7.40559338      -0.67500000
P        7.38032860      10.32569827       7.40559333      -0.67500000
P       10.34236426      10.34236411      10.34704891      -0.67500000
In       5.75466607       5.75466589       5.65817873       0.67500000
In       8.79265526       5.89637945       8.81679956       0.67500000
In       5.89637961       8.79265508       8.81679950       0.67500000
In       8.84462037       8.84462026       5.93562405       0.67500000
63
Lattice="11.8016818 -7.6e-06 -7.6e-06 -7.6e-06 11.8016818 -7.8e-06 -7.6e-06 -7.8e-06 11.8016816" Properties=species:S:1:pos:R:3:mulliken_charges:R:1 virial="-0.001343979365248383 3.847269175329341e-05 3.847269175329341e-05 3.847269175329341e-05 -0.001345261788306826 3.847269175329341e-05 3.847269175329341e-05 3.847269175329341e-05 -0.0013426969421899398" fermi_energy=3.4539138232004998 core_to_fermi_energy=15.43004959127955 config_type=Accurate_Bulk pbc="T T T"
P        2.41803373       2.41803370       3.94980595      -0.67500000
P        4.50253456       1.44293601       1.29701034      -0.67500000
P        1.44293600       4.50253454       1.29701026      -0.67500000
In       0.00501167       0.00501166       0.05977740       0.67500000
In       3.05316058       0.14429639       2.96660407       0.67500000
In       0.14429643       3.05316054       2.96660400       0.67500000
In       2.94746317       2.94746314      -0.07516499       0.67500000
P        1.44451015       1.44450999      10.31200998      -0.67500000
P        4.49653040       1.42003743       7.52796332      -0.67500000
P        1.42003754       4.49653029       7.52796328      -0.67500000
P        4.45589244       4.45589228      10.32114730      -0.67500000
In       0.09425330       0.09425314       5.74820805       0.67500000
In       2.93686673      -0.07650559       8.90267071       0.67500000
In      -0.07650542       2.93686656       8.90267067       0.67500000
In       2.87184935       2.87184923       6.31041076       0.67500000
P        1.49789729       7.31822719       4.43287306      -0.67500000
P        4.43971673       7.34892992       1.55854778      -0.67500000
P        1.49724236      10.40685395       1.60006488      -0.67500000
P        4.41463346      10.35998717       4.43841318      -0.67500000
In      -0.03384198       5.96676773      -0.13473134       0.67500000
In       2.93153393       5.78710026       2.93283881       0.67500000
In       0.00392533       8.83601199       2.97797968       0.67500000
In       2.95394106       8.87573915       0.13126732       0.67500000
P        1.50196516       7.48948634      10.32746364      -0.67500000
P        4.44922660       7.32652873       7.29258456      -0.67500000
P        1.47724153      10.37188449       7.30511741      -0.67500000
P        4.42389734      10.23856000      10.33222858      -0.67500000
In      -0.01049158       5.90356990       5.92920701       0.67500000
In       2.99218003       5.98906851       8.89798110       0.67500000
In       0.00435484       8.91423866       8.82495712       0.67500000
In       2.95054049       8.83799190       5.89844371       0.67500000
P        7.31822724       1.49789724       4.43287316      -0.67500000
P       10.40685395       1.49724236       1.60006502      -0.67500000
P        7.34892991       4.43971673       1.55854785      -0.67500000
P       10.35998722       4.41463342       4.43841329      -0.67500000
In       5.96676775      -0.03384199      -0.13473123       0.67500000
In       8.83601205       0.00392528       2.97797983       0.67500000
In       5.78710028       2.93153391       2.93283893       0.67500000
In       8.87573913       2.95394105       0.13126743       0.67500000
P        7.48948649       1.50196500      10.32746374      -0.67500000
P       10.37188464       1.47724140       7.30511754      -0.67500000
P        7.32652889       4.44922646       7.29258463      -0.67500000
P       10.23856015       4.42389717      10.33222869      -0.67500000
In       5.90357002      -0.01049170       5.92920710       0.67500000
In       8.91423884       0.00435467       8.82495726       0.67500000
In       5.98906867       2.99217986       8.89798114       0.67500000
In       8.83799204       2.95054035       5.89844381       0.67500000
P        7.38026495       7.38026490       4.43166535      -0.67500000
P       10.34718969       7.37991736       1.45762297      -0.67500000
P        7.37991736      10.34718968       1.45762293      -0.67500000
P       10.32401506      10.32401501       4.43737308      -0.67500000
In       5.90810783       5.90810782       0.04431787       0.67500000
In       8.88176879       5.92163405       2.96832947       0.67500000
In       5.92163411       8.88176872       2.96832942       0.67500000
In       8.85459998       8.85459997       0.00209994       0.67500000
P        7.36861710       7.36861695      10.34097353      -0.67500000
P       10.32788604       7.38091407       7.40918524      -0.67500000
P        7.38091418      10.32788593       7.40918519      -0.67500000
P       10.34414120      10.34414104      10.35106615      -0.67500000
In       5.76717307       5.76717289       5.66459005       0.67500000
In       8.79089315       5.89878450       8.81715566       0.67500000
In       5.89878466       8.79089297       8.81715559       0.67500000
In       8.84634140       8.84634129       5.93918869       0.67500000
63