 +-------------------------------------------------+
 |                                                 |
 |      CCC   AA    SSS  TTTTT  EEEEE  PPPP        |
 |     C     A  A  S       T    E      P   P       |
 |     C     AAAA   SS     T    EEE    PPPP        |
 |     C     A  A     S    T    E      P           |
 |      CCC  A  A  SSS     T    EEEEE  P           |
 |                                                 |
 +-------------------------------------------------+
 |                                                 |
 | Welcome to Academic Release CASTEP version 24.1 |
 | Ab Initio Total Energy Program                  |
 |                                                 |
 | Authors:                                        |
 | M. Segall, M. Probert, C. Pickard, P. Hasnip,   |
 | S. Clark, K. Refson, J. R. Yates,               |
 | A. Bartok-Partay, M. Payne                      |
 |                                                 |
 | Contributors:                                   |
 | P. Lindan, P. Haynes, J. White, V. Milman,      |
 | N. Govind, M. Gibson, P. Tulip, V. Cocula,      |
 | B. Montanari, D. Quigley, M. Glover,            |
 | L. Bernasconi, A. Perlov, M. Plummer,           |
 | E. McNellis, J. Meyer, J. Gale, D. Jochym       |
 | J. Aarons, B. Walker, R. Gillen, D. Jones       |
 | T. Green, I. J. Bush, C. J. Armstrong,          |
 | E. J. Higgins, E. L. Brown, M. S. McFly,        |
 | J. Wilkins, B-C. Shih, P. J. P. Byrne,          |
 | R. J. Maurer, J. C. Womack, J. Dziedzic,        |
 | L. LeBlanc, T. K. Stenczel, J. Kermode,         |
 | S. Sturniolo, B. Shi, B. Durham, M. Evans,      |
 | M. J. Smith, A. Tamerus, Z. Hawkhead,           |
 | V. Ravindran, T. Hollins, S. A. Joyce,          |
 | R. T. Strong, A. M. Reilly, S. J. Donaldson     |
 |                                                 |
 | Copyright (c) 2000 - 2023                       |
 |                                                 |
 |     Distributed under license from Cambridge    |
 |     Enterprise for academic use only.           |
 |                                                 |
 | Please cite                                     |
 |                                                 |
 |     "First principles methods using CASTEP"     |
 |                                                 |
 |         Zeitschrift fuer Kristallographie       |
 |           220(5-6) pp. 567-570 (2005)           |
 |                                                 |
 | S. J. Clark, M. D. Segall, C. J. Pickard,       |
 | P. J. Hasnip, M. J. Probert, K. Refson,         |
 | M. C. Payne                                     |
 |                                                 |
 |       in all publications arising from          |
 |              your use of CASTEP                 |
 |                                                 |
 +-------------------------------------------------+
 |                                                 |
 |              http://www.castep.org              |
 |                                                 |
 +-------------------------------------------------+



 Compiled for  GNU 11.2.0 on 04-04-2024 18:39:17
 from code version 6355fd106 Castep241_branch Thu Mar 7 17:56:19 2024 +0000
 Compiler: GNU Fortran 11.2.0; Optimisation: FAST
 Comms   : MPI VERSION : CRAY MPICH version 8.1.23.14 (ANL base 3.4a2)
 MATHLIBS: default (LAPACK version 3.10.1)
 FFT Lib : fftw3 version commercial-fftw-3.3.10-sse2-avx-avx2-avx2_128
 Fundamental constants values: CODATA 2018

 Run started: Mon, 24 Mar 2025 00:33:29 +0000

 Atomic calculation performed for P: 1s2 2s2 2p6 3s2 3p3

 Converged in 47 iterations to an ae energy of -9309.074 eV

   ============================================================                
   | Pseudopotential Report - Date of generation 24-03-2025   |                
   ------------------------------------------------------------                
   | Element: P Ionic charge:  5.00 Level of theory: RSCAN    |                
   | Atomic Solver: Koelling-Harmon                           |                
   |                                                          |                
   |               Reference Electronic Structure             |                
   |         Orbital         Occupation         Energy        |                
   |            3s              2.000           -0.535        |                
   |            3p              3.000           -0.209        |                
   |                                                          |                
   |                 Pseudopotential Definition               |                
   |        Beta     l      e      Rc     scheme   norm       |                
   |          1      0   -0.535   1.807     qc      0         |                
   |          2      0    0.250   1.807     qc      0         |                
   |          3      1   -0.209   1.807     qc      0         |                
   |          4      1    0.250   1.807     qc      0         |                
   |          5      2    0.000   1.807     qc      0         |                
   |          6      2    0.250   1.807     qc      0         |                
   |         loc     3    0.000   1.807     pn      0         |                
   |                                                          |                
   | Augmentation charge Rinner = 1.263                       |                
   | Partial core correction Rc = 1.263                       |                
   ------------------------------------------------------------                
   | "3|1.8|4|4|5|30:31:32"                                   |                
   ------------------------------------------------------------                
   |      Author: Chris J. Pickard, Cambridge University      |                
   ============================================================                
 Warning: otfg_output_psp cannot write out meta-GGA pseudopotentials presently.

 Atomic calculation performed for In:
 1s2 2s2 2p6 3s2 3p6 3d10 4s2 4p6 4d10 5s2 5p1

 Converged in 84 iterations to an ae energy of -160093.328 eV

   ============================================================                
   | Pseudopotential Report - Date of generation 24-03-2025   |                
   ------------------------------------------------------------                
   | Element: In Ionic charge: 13.00 Level of theory: RSCAN   |                
   | Atomic Solver: Koelling-Harmon                           |                
   |                                                          |                
   |               Reference Electronic Structure             |                
   |         Orbital         Occupation         Energy        |                
   |            4d             10.000           -0.711        |                
   |            5s              2.000           -0.313        |                
   |            5p              1.000           -0.095        |                
   |                                                          |                
   |                 Pseudopotential Definition               |                
   |        Beta     l      e      Rc     scheme   norm       |                
   |          1      0   -0.313   2.501     qc      0         |                
   |          2      0    0.250   2.501     qc      0         |                
   |          3      1   -0.095   2.501     qc      0         |                
   |          4      1    0.250   2.501     qc      0         |                
   |          5      2   -0.711   2.207     qc      0         |                
   |          6      2    0.250   2.207     qc      0         |                
   |         loc     3    0.000   2.501     pn      0         |                
   |                                                          |                
   | Augmentation charge Rinner = 1.504                       |                
   | Partial core correction Rc = 1.504                       |                
   ------------------------------------------------------------                
   | "3|2.5|2.5|1.5|7|8|9|50:51:42U2.2U2.2"                   |                
   ------------------------------------------------------------                
   |      Author: Chris J. Pickard, Cambridge University      |                
   ============================================================                
 Warning: otfg_output_psp cannot write out meta-GGA pseudopotentials presently.

 Pseudo atomic calculation performed for P 3s2 3p3

 Converged in 23 iterations to a total energy of -208.0292 eV

 Pseudo atomic calculation performed for In 4d10 5s2 5p1

 Converged in 42 iterations to a total energy of -1747.4501 eV
 Calculation parallelised over 68 processes.
 Data is distributed by k-point(68-way)
 Each process may use up to 16 threads.

 ************************************ Title ************************************
 

 ***************************** General Parameters ******************************
  
 output verbosity                               : normal  (1)
 write checkpoint data to                       : StackingFaultStructs_001_110_0.check
 type of calculation                            : geometry optimization
 stress calculation                             : off
 density difference calculation                 : off
 electron localisation func (ELF) calculation   : off
 Hirshfeld analysis                             : on
 polarisation (Berry phase) analysis            : off
 molecular orbital projected DOS                : off
 deltaSCF calculation                           : off
 unlimited duration calculation
 timing information                             : on
 memory usage estimate                          : on
 write extra output files                       : on
 write final potential to formatted file        : off
 write final density to formatted file          : off
 write BibTeX reference list                    : on
 write OTFG pseudopotential files               : on
 write electrostatic potential file             : on
 write bands file                               : on
 checkpoint writing                             : off
  
 output         length unit                     : A
 output           mass unit                     : amu
 output           time unit                     : ps
 output         charge unit                     : e
 output           spin unit                     : hbar/2
 output         energy unit                     : eV
 output          force unit                     : eV/A
 output       velocity unit                     : A/ps
 output       pressure unit                     : GPa
 output     inv_length unit                     : 1/A
 output      frequency unit                     : cm-1
 output force constant unit                     : eV/A**2
 output         volume unit                     : A**3
 output   IR intensity unit                     : (D/A)**2/amu
 output         dipole unit                     : D
 output         efield unit                     : eV/A/e
 output        entropy unit                     : J/mol/K
 output    efield chi2 unit                     : pm/V
  
 wavefunctions paging                           : none
 random number generator seed                   :    3329807
 data distribution                              : optimal for this architecture
 optimization strategy                          : balance speed and memory

 *********************** Exchange-Correlation Parameters ***********************
  
 using functional                               : RSCAN
 relativistic treatment                         : Koelling-Harmon
 DFT+D: Semi-empirical dispersion correction    : off

 ************************* Pseudopotential Parameters **************************
  
 pseudopotential representation                 : reciprocal space
 <beta|phi> representation                      : reciprocal space
 spin-orbit coupling                            : off

 **************************** Basis Set Parameters *****************************
  
 plane wave basis set cut-off                   :   900.0000   eV
 size of standard grid                          :     2.0000
 size of   fine   gmax                          :    30.7390   1/A
 finite basis set correction                    : none

 **************************** Electronic Parameters ****************************
  
 number of  electrons                           :  216.0    
 net charge of system                           :  0.000    
 treating system as non-spin-polarized
 number of bands                                :        130

 ********************* Electronic Minimization Parameters **********************
  
 Method: Treating system as metallic with density mixing treatment of electrons,
         and number of  SD  steps               :          1
         and number of  CG  steps               :          4
  
 total energy / atom convergence tol.           : 0.1000E-07   eV
 eigen-energy convergence tolerance             : 0.2222E-08   eV
 max force / atom convergence tol.              : ignored
 convergence tolerance window                   :          3   cycles
 max. number of SCF cycles                      :         50
 number of fixed-spin iterations                :         10
 smearing scheme                                : Gaussian
 smearing width                                 : 0.2000       eV
 Fermi energy convergence tolerance             : 0.2721E-13   eV
 periodic dipole correction                     : NONE

 ************************** Density Mixing Parameters **************************
  
 density-mixing scheme                          : Pulay
 max. length of mixing history                  :         15
 charge density mixing amplitude                : 0.5000    
 cut-off energy for mixing                      :  900.0       eV

 *********************** Population Analysis Parameters ************************
  
 Population analysis with cutoff                :  3.000       A
 Population analysis output                     : summary and pdos components

 ********************** Geometry Optimization Parameters ***********************
  
 optimization method                            : LBFGS
 max. no. of LBFGS updates                      : unbounded
 preconditioned LBFGS is activated
 preconditioner type                            : EXP
     stabilization constant                     :     0.1000
     parameter A                                :     3.0000
     nearest neighbor distance                  : automatic
     cut-off distance                           : automatic
     parameter mu                               : automatic
 variable cell method                           : fixed basis quality
 max. number of steps                           :         30
 estimated bulk modulus                         :  500.0       GPa
 estimated <frequency>                          :  1668.       cm-1
 geom line minimiser                            : on
 with line minimiser tolerance                  :     0.4000
 total energy convergence tolerance             : 0.2000E-04   eV/atom
        max ionic |force| tolerance             : 0.1000E-02   eV/A
 max ionic |displacement| tolerance             : 0.1000E-02   A
   max |stress component| tolerance             : 0.1000       GPa
 convergence tolerance window                   :          2   steps
 backup results every                           :          5   steps
 write geom trajectory file                     : on

 *******************************************************************************
  

                           -------------------------------
                                      Unit Cell
                           -------------------------------
        Real Lattice(A)                      Reciprocal Lattice(1/A)
     4.1725270     0.0000000     0.0000000        1.505846531   0.000000000   0.000000000
     0.0000000     4.1725270     0.0000000        0.000000000   1.505846531   0.000000000
     0.0000000     0.0000000    35.4050640        0.000000000   0.000000000   0.177465724

                       Lattice parameters(A)       Cell Angles
                    a =      4.172527          alpha =   90.000000
                    b =      4.172527          beta  =   90.000000
                    c =     35.405064          gamma =   90.000000

                       Current cell volume =           616.401512       A**3
                                   density =             2.838249   AMU/A**3
                                           =             4.713024     g/cm^3

                           -------------------------------
                                     Cell Contents
                           -------------------------------
                         Total number of ions in cell =   24
                      Total number of species in cell =    2
                        Max number of any one species =   12

            xxxxxxxxxxxxxxxxxxxxxxxxxxxxxxxxxxxxxxxxxxxxxxxxxxxxxxxxxxxx
            x  Element    Atom        Fractional coordinates of atoms  x
            x            Number           u          v          w      x
            x----------------------------------------------------------x
            x  P            1         0.500000   0.000000   0.458333   x 
            x  P            2         0.000000   0.500000   0.208333   x 
            x  P            3         0.000000   0.500000   0.375000   x 
            x  P            4         0.000000   0.500000   0.875000   x 
            x  P            5         0.500000   0.000000   0.625000   x 
            x  P            6         0.000000   0.500000   0.541667   x 
            x  P            7         0.500000   0.000000   0.291667   x 
            x  P            8         0.500000   0.000000   0.791667   x 
            x  P            9         0.000000   0.500000   0.708333   x 
            x  P           10         0.000000   0.500000   0.041667   x 
            x  P           11         0.500000   0.000000   0.958333   x 
            x  P           12         0.500000   0.000000   0.125000   x 
            x  In           1         0.500000   0.500000   0.416667   x 
            x  In           2         0.000000   0.000000   0.833333   x 
            x  In           3         0.500000   0.500000   0.750000   x 
            x  In           4         0.000000   0.000000   0.666667   x 
            x  In           5         0.500000   0.500000   0.583333   x 
            x  In           6         0.000000   0.000000   0.500000   x 
            x  In           7         0.000000   0.000000   0.333333   x 
            x  In           8         0.500000   0.500000   0.916667   x 
            x  In           9         0.000000   0.000000   0.166667   x 
            x  In          10         0.500000   0.500000   0.083333   x 
            x  In          11         0.000000   0.000000   0.000000   x 
            x  In          12         0.500000   0.500000   0.250000   x 
            xxxxxxxxxxxxxxxxxxxxxxxxxxxxxxxxxxxxxxxxxxxxxxxxxxxxxxxxxxxx


                         No user defined ionic velocities

                           -------------------------------
                                   Details of Species
                           -------------------------------

                               Mass of species in AMU
                                    P   30.9737600
                                    In  114.8180000

                          Electric Quadrupole Moment (Barn)
                                    P    1.0000000 No Isotope Defined
                                    In    0.7700000 Isotope115

                          Files used for pseudopotentials:
                                    P 3|1.8|4|4|5|30:31:32
                                    In 3|2.5|2.5|1.5|7|8|9|50:51:42U2.2U2.2

                           -------------------------------
                              k-Points For BZ Sampling
                           -------------------------------
                       MP grid size for SCF calculation is  8  8  2
                            with an offset of   0.062  0.062  0.250
                       Number of kpoints used =            68

                           -------------------------------
                               Symmetry and Constraints
                           -------------------------------

                      Cell is a supercell containing 12 primitive cells
                      Maximum deviation from symmetry =  0.00000         ANG

                      Number of symmetry operations   =           1
                      Number of ionic constraints     =          48
                      Point group of crystal =     1: C1, 1, 1
                      Space group of crystal =   216: F-43m, F -4 2 3

             Set iprint > 1 for details on symmetry rotations/translations

                         Centre of mass is NOT constrained
             Set iprint > 1 for details of linear ionic constraints

                         Number of cell constraints= 6
                         Cell constraints are:  0 0 0 0 0 0

                         External pressure/stress (GPa)
                          0.00000   0.00000   0.00000
                                    0.00000   0.00000
                                              0.00000
 
+---------------- MEMORY AND SCRATCH DISK ESTIMATES PER PROCESS --------------+
|                                                     Memory          Disk    |
| Baseline code, static data and system overhead      386.0 MB         0.0 MB |
| BLAS internal memory storage                          0.0 MB         0.0 MB |
| Model and support data                             4597.9 MB         0.0 MB |
| Electronic energy minimisation requirements         525.7 MB         0.0 MB |
| Force calculation requirements                      105.7 MB         0.0 MB |
|                                               ----------------------------- |
| Approx. total storage required per process         5509.6 MB         0.0 MB |
|                                                                             |
| Requirements will fluctuate during execution and may exceed these estimates |
+-----------------------------------------------------------------------------+
Calculating approximate eigenstates for fixed initial Hamiltonian
Cut-off for approx. calculation is   89.988 eV
Improving approx. states at cut-off of  450.000 eV
Resetting cut-off to  900.000 eV
Calculating total energy with cut-off of  900.000 eV.
------------------------------------------------------------------------ <-- SCF
SCF loop      Energy           Fermi           Energy gain       Timer   <-- SCF
                               energy          per atom          (sec)   <-- SCF
------------------------------------------------------------------------ <-- SCF
Initial  -2.36433264E+004  0.00000000E+000                        79.38  <-- SCF
      1  -2.35520683E+004  2.67366955E+000  -3.80241902E+000     120.13  <-- SCF
      2  -2.35521555E+004  2.57838683E+000   3.63053853E-003     151.52  <-- SCF
      3  -2.35771888E+004  2.88297215E+000   1.04305566E+000     184.97  <-- SCF
      4  -2.35815215E+004  2.96056912E+000   1.80528985E-001     231.47  <-- SCF
      5  -2.35795088E+004  3.31827119E+000  -8.38601063E-002     266.08  <-- SCF
      6  -2.35792638E+004  3.37267827E+000  -1.02121837E-002     301.66  <-- SCF
      7  -2.35792698E+004  3.42018700E+000   2.52288010E-004     338.06  <-- SCF
      8  -2.35797625E+004  3.45932378E+000   2.05302805E-002     374.71  <-- SCF
      9  -2.35798010E+004  3.39970319E+000   1.60085355E-003     410.43  <-- SCF
     10  -2.35798024E+004  3.42366963E+000   6.18007802E-005     447.31  <-- SCF
     11  -2.35798019E+004  3.42650966E+000  -2.09458638E-005     487.77  <-- SCF
     12  -2.35798024E+004  3.42415587E+000   2.14579586E-005     526.64  <-- SCF
     13  -2.35798025E+004  3.42393505E+000   1.78612122E-006     561.61  <-- SCF
     14  -2.35798025E+004  3.42372974E+000   1.12954983E-007     594.50  <-- SCF
     15  -2.35798025E+004  3.42376953E+000   3.28847177E-009     622.84  <-- SCF
     16  -2.35798025E+004  3.42379535E+000   5.29259371E-010     649.81  <-- SCF
------------------------------------------------------------------------ <-- SCF
 
Final energy, E             =  -23579.80248661     eV
Final free energy (E-TS)    =  -23579.80249396     eV
(energies not corrected for finite basis set)
 
NB est. 0K energy (E-0.5TS)      =  -23579.80249029     eV
 
 
+---------------- MEMORY AND SCRATCH DISK ESTIMATES PER PROCESS --------------+
|                                                     Memory          Disk    |
| Model and support data                             2667.9 MB         0.0 MB |
| Electronic energy minimisation requirements         525.7 MB         0.0 MB |
| Geometry minimisation requirements                  613.3 MB         0.0 MB |
|                                               ----------------------------- |
| Approx. total storage required per process         3806.9 MB         0.0 MB |
|                                                                             |
| Requirements will fluctuate during execution and may exceed these estimates |
+-----------------------------------------------------------------------------+
 

 ******************************** Constrained Forces ********************************
 *                                                                                  *
 *                           Cartesian components (eV/A)                            *
 * -------------------------------------------------------------------------------- *
 *                         x                    y                    z              *
 *                                                                                  *
 * P               1      0.00000(cons'd)      0.00000(cons'd)      0.00428         *
 * P               2      0.00000(cons'd)     -0.00000(cons'd)     -0.00421         *
 * P               3      0.00000(cons'd)     -0.00000(cons'd)     -0.00416         *
 * P               4      0.00000(cons'd)      0.00000(cons'd)     -0.00428         *
 * P               5      0.00000(cons'd)      0.00000(cons'd)      0.00424         *
 * P               6      0.00000(cons'd)      0.00000(cons'd)     -0.00417         *
 * P               7     -0.00000(cons'd)      0.00000(cons'd)      0.00426         *
 * P               8     -0.00000(cons'd)      0.00000(cons'd)      0.00418         *
 * P               9      0.00000(cons'd)      0.00000(cons'd)     -0.00423         *
 * P              10      0.00000(cons'd)      0.00000(cons'd)     -0.00427         *
 * P              11      0.00000(cons'd)      0.00000(cons'd)      0.00416         *
 * P              12     -0.00000(cons'd)      0.00000(cons'd)      0.00420         *
 * In              1      0.00000(cons'd)      0.00000(cons'd)     -0.00006         *
 * In              2      0.00000(cons'd)      0.00000(cons'd)      0.00005         *
 * In              3      0.00000(cons'd)      0.00000(cons'd)      0.00002         *
 * In              4      0.00000(cons'd)      0.00000(cons'd)     -0.00000         *
 * In              5      0.00000(cons'd)      0.00000(cons'd)     -0.00003         *
 * In              6      0.00000(cons'd)      0.00000(cons'd)     -0.00005         *
 * In              7      0.00000(cons'd)      0.00000(cons'd)     -0.00005         *
 * In              8      0.00000(cons'd)      0.00000(cons'd)      0.00006         *
 * In              9      0.00000(cons'd)      0.00000(cons'd)      0.00001         *
 * In             10      0.00000(cons'd)      0.00000(cons'd)      0.00003         *
 * In             11      0.00000(cons'd)      0.00000(cons'd)      0.00005         *
 * In             12      0.00000(cons'd)      0.00000(cons'd)     -0.00002         *
 *                                                                                  *
 ************************************************************************************
 EXP precond LBFGS => estimated nearest neighbor distance :  2.555       A
 EXP precond LBFGS => estimated cutoff distance :  5.110       A

 ************************************** Forces **************************************
 *                                                                                  *
 *                           Cartesian components (eV/A)                            *
 * -------------------------------------------------------------------------------- *
 *                         x                    y                    z              *
 *                                                                                  *
 * P               1      0.00000(cons'd)     -0.00000(cons'd)      0.00428         *
 * P               2     -0.00000(cons'd)      0.00000(cons'd)     -0.00421         *
 * P               3     -0.00000(cons'd)      0.00000(cons'd)     -0.00416         *
 * P               4     -0.00000(cons'd)      0.00000(cons'd)     -0.00428         *
 * P               5      0.00000(cons'd)     -0.00000(cons'd)      0.00424         *
 * P               6     -0.00000(cons'd)      0.00000(cons'd)     -0.00417         *
 * P               7      0.00000(cons'd)     -0.00000(cons'd)      0.00426         *
 * P               8      0.00000(cons'd)     -0.00000(cons'd)      0.00418         *
 * P               9     -0.00000(cons'd)      0.00000(cons'd)     -0.00423         *
 * P              10     -0.00000(cons'd)      0.00000(cons'd)     -0.00427         *
 * P              11      0.00000(cons'd)     -0.00000(cons'd)      0.00416         *
 * P              12      0.00000(cons'd)     -0.00000(cons'd)      0.00420         *
 * In              1      0.00000(cons'd)      0.00000(cons'd)     -0.00006         *
 * In              2     -0.00000(cons'd)     -0.00000(cons'd)      0.00005         *
 * In              3      0.00000(cons'd)      0.00000(cons'd)      0.00002         *
 * In              4     -0.00000(cons'd)     -0.00000(cons'd)     -0.00000         *
 * In              5      0.00000(cons'd)      0.00000(cons'd)     -0.00003         *
 * In              6     -0.00000(cons'd)     -0.00000(cons'd)     -0.00005         *
 * In              7     -0.00000(cons'd)     -0.00000(cons'd)     -0.00005         *
 * In              8      0.00000(cons'd)      0.00000(cons'd)      0.00006         *
 * In              9     -0.00000(cons'd)     -0.00000(cons'd)      0.00001         *
 * In             10      0.00000(cons'd)      0.00000(cons'd)      0.00003         *
 * In             11     -0.00000(cons'd)     -0.00000(cons'd)      0.00005         *
 * In             12      0.00000(cons'd)      0.00000(cons'd)     -0.00002         *
 *                                                                                  *
 ************************************************************************************
 doing test perturbation to get energy scale for EXP preconditioner

                           -------------------------------
                                     Cell Contents
                           -------------------------------

            xxxxxxxxxxxxxxxxxxxxxxxxxxxxxxxxxxxxxxxxxxxxxxxxxxxxxxxxxxxxxxxxx
            x  Element         Atom        Fractional coordinates of atoms  x
            x                 Number           u          v          w      x
            x---------------------------------------------------------------x
            x  P                 1         0.505153   0.000000   0.458665   x
            x  P                 2         0.000000   0.505153   0.208489   x
            x  P                 3         0.000000   0.505153   0.375275   x
            x  P                 4         0.000000   0.505153   0.875571   x
            x  P                 5         0.505153   0.000000   0.625438   x
            x  P                 6         0.000000   0.505153   0.542053   x
            x  P                 7         0.505153   0.000000   0.291883   x
            x  P                 8         0.505153   0.000000   0.792197   x
            x  P                 9         0.000000   0.505153   0.708819   x
            x  P                10         0.000000   0.505153   0.041698   x
            x  P                11         0.505153   0.000000   0.958941   x
            x  P                12         0.505153   0.000000   0.125094   x
            x  In                1         0.505153   0.505153   0.416971   x
            x  In                2         0.000000   0.000000   0.833885   x
            x  In                3         0.505153   0.505153   0.750509   x
            x  In                4         0.000000   0.000000   0.667129   x
            x  In                5         0.505153   0.505153   0.583746   x
            x  In                6         0.000000   0.000000   0.500360   x
            x  In                7         0.000000   0.000000   0.333579   x
            x  In                8         0.505153   0.505153   0.917256   x
            x  In                9         0.000000   0.000000   0.166792   x
            x  In               10         0.505153   0.505153   0.083396   x
            x  In               11         0.000000   0.000000   0.000000   x
            x  In               12         0.505153   0.505153   0.250186   x
            xxxxxxxxxxxxxxxxxxxxxxxxxxxxxxxxxxxxxxxxxxxxxxxxxxxxxxxxxxxxxxxxx


------------------------------------------------------------------------ <-- SCF
SCF loop      Energy           Fermi           Energy gain       Timer   <-- SCF
                               energy          per atom          (sec)   <-- SCF
------------------------------------------------------------------------ <-- SCF
Initial  -2.35786532E+004  0.00000000E+000                       734.39  <-- SCF
      1  -2.35796182E+004  3.42391281E+000   4.02089086E-002     775.03  <-- SCF
      2  -2.35797573E+004  3.42381730E+000   5.79579231E-003     819.79  <-- SCF
      3  -2.35797585E+004  3.42394555E+000   5.25065907E-005     854.25  <-- SCF
      4  -2.35797595E+004  3.42401380E+000   4.22082131E-005     892.62  <-- SCF
      5  -2.35797596E+004  3.42398512E+000   3.56921769E-006     936.53  <-- SCF
      6  -2.35797597E+004  3.42397531E+000   1.42140570E-006     976.37  <-- SCF
      7  -2.35797597E+004  3.42398997E+000  -1.85073211E-008    1010.26  <-- SCF
      8  -2.35797597E+004  3.42400402E+000  -8.96227143E-008    1041.09  <-- SCF
      9  -2.35797597E+004  3.42401815E+000  -1.10467619E-007    1072.94  <-- SCF
     10  -2.35797597E+004  3.42405206E+000  -1.20954328E-007    1104.17  <-- SCF
     11  -2.35797597E+004  3.42407147E+000  -2.68090624E-008    1135.65  <-- SCF
     12  -2.35797597E+004  3.42408684E+000  -1.39026615E-008    1166.20  <-- SCF
     13  -2.35797597E+004  3.42409294E+000  -5.56714862E-009    1195.27  <-- SCF
     14  -2.35797597E+004  3.42409491E+000  -1.08313845E-009    1225.85  <-- SCF
------------------------------------------------------------------------ <-- SCF
 
Final energy, E             =  -23579.75964959     eV
Final free energy (E-TS)    =  -23579.75965698     eV
(energies not corrected for finite basis set)
 
NB est. 0K energy (E-0.5TS)      =  -23579.75965328     eV
 

 ************************************** Forces **************************************
 *                                                                                  *
 *                           Cartesian components (eV/A)                            *
 * -------------------------------------------------------------------------------- *
 *                         x                    y                    z              *
 *                                                                                  *
 * P               1     -0.17709(cons'd)      0.17780(cons'd)      0.00541         *
 * P               2      0.17854(cons'd)     -0.17557(cons'd)      0.00034         *
 * P               3      0.17856(cons'd)     -0.17497(cons'd)      0.00151         *
 * P               4      0.17874(cons'd)     -0.17402(cons'd)      0.00545         *
 * P               5     -0.17734(cons'd)      0.17783(cons'd)      0.00598         *
 * P               6      0.17861(cons'd)     -0.17449(cons'd)      0.00274         *
 * P               7     -0.17670(cons'd)      0.17778(cons'd)      0.00509         *
 * P               8     -0.17746(cons'd)      0.17788(cons'd)      0.00642         *
 * P               9      0.17867(cons'd)     -0.17415(cons'd)      0.00428         *
 * P              10      0.17903(cons'd)     -0.17641(cons'd)      0.00753         *
 * P              11     -0.18775(cons'd)      0.17807(cons'd)     -0.11824         *
 * P              12     -0.17609(cons'd)      0.17775(cons'd)      0.00419         *
 * In              1     -0.14958(cons'd)     -0.15024(cons'd)     -0.00413         *
 * In              2      0.14815(cons'd)      0.14750(cons'd)     -0.00383         *
 * In              3     -0.14969(cons'd)     -0.15034(cons'd)     -0.00408         *
 * In              4      0.14808(cons'd)      0.14740(cons'd)     -0.00414         *
 * In              5     -0.14963(cons'd)     -0.15029(cons'd)     -0.00417         *
 * In              6      0.14803(cons'd)      0.14735(cons'd)     -0.00418         *
 * In              7      0.14799(cons'd)      0.14730(cons'd)     -0.00404         *
 * In              8     -0.15001(cons'd)     -0.15042(cons'd)     -0.02056         *
 * In              9      0.14796(cons'd)      0.14726(cons'd)     -0.00388         *
 * In             10     -0.14968(cons'd)     -0.15028(cons'd)     -0.00491         *
 * In             11      0.15821(cons'd)      0.14748(cons'd)      0.13109         *
 * In             12     -0.14956(cons'd)     -0.15022(cons'd)     -0.00388         *
 *                                                                                  *
 ************************************************************************************
 EXP precond LBFGS => estimated parameter mu :  5.019       eV/A**2
 LBFGS: finished iteration     0 with enthalpy= -2.35798025E+004 eV
  
 +-----------+-----------------+-----------------+------------+-----+ <-- LBFGS
 | Parameter |      value      |    tolerance    |    units   | OK? | <-- LBFGS
 +-----------+-----------------+-----------------+------------+-----+ <-- LBFGS
 |  dE/ion   |   0.000000E+000 |   2.000000E-005 |         eV | No  | <-- LBFGS
 |  |F|max   |   2.844987E-001 |   1.000000E-003 |       eV/A | No  | <-- LBFGS
 |  |dR|max  |   7.520060E-015 |   1.000000E-003 |          A | No  | <-- LBFGS
 +-----------+-----------------+-----------------+------------+-----+ <-- LBFGS
  

================================================================================
 Starting LBFGS iteration          1 ...
================================================================================
  
 +------------+-------------+-------------+-----------------+ <-- min LBFGS
 |    Step    |   lambda    |   F.delta'  |    enthalpy     | <-- min LBFGS
 +------------+-------------+-------------+-----------------+ <-- min LBFGS
 |  previous  |    0.000000 |    0.019026 |   -23579.802494 | <-- min LBFGS
 +------------+-------------+-------------+-----------------+ <-- min LBFGS
  

--------------------------------------------------------------------------------
 LBFGS: starting iteration         1 with trial guess (lambda=  1.000000)
--------------------------------------------------------------------------------

                           -------------------------------
                                     Cell Contents
                           -------------------------------

            xxxxxxxxxxxxxxxxxxxxxxxxxxxxxxxxxxxxxxxxxxxxxxxxxxxxxxxxxxxxxxxxx
            x  Element         Atom        Fractional coordinates of atoms  x
            x                 Number           u          v          w      x
            x---------------------------------------------------------------x
            x  P                 1         0.500000   0.000000   0.458342   x
            x  P                 2         0.000000   0.500000   0.208325   x
            x  P                 3         0.000000   0.500000   0.374992   x
            x  P                 4         0.000000   0.500000   0.874991   x
            x  P                 5         0.500000   0.000000   0.625008   x
            x  P                 6         0.000000   0.500000   0.541658   x
            x  P                 7         0.500000   0.000000   0.291675   x
            x  P                 8         0.500000   0.000000   0.791675   x
            x  P                 9         0.000000   0.500000   0.708325   x
            x  P                10         0.000000   0.500000   0.041658   x
            x  P                11         0.500000   0.000000   0.958342   x
            x  P                12         0.500000   0.000000   0.125008   x
            x  In                1         0.500000   0.500000   0.416667   x
            x  In                2         0.000000   0.000000   0.833333   x
            x  In                3         0.500000   0.500000   0.750000   x
            x  In                4         0.000000   0.000000   0.666667   x
            x  In                5         0.500000   0.500000   0.583333   x
            x  In                6         0.000000   0.000000   0.500000   x
            x  In                7         0.000000   0.000000   0.333333   x
            x  In                8         0.500000   0.500000   0.916667   x
            x  In                9         0.000000   0.000000   0.166667   x
            x  In               10         0.500000   0.500000   0.083333   x
            x  In               11         0.000000   0.000000  -0.000000   x
            x  In               12         0.500000   0.500000   0.250000   x
            xxxxxxxxxxxxxxxxxxxxxxxxxxxxxxxxxxxxxxxxxxxxxxxxxxxxxxxxxxxxxxxxx


------------------------------------------------------------------------ <-- SCF
SCF loop      Energy           Fermi           Energy gain       Timer   <-- SCF
                               energy          per atom          (sec)   <-- SCF
------------------------------------------------------------------------ <-- SCF
Initial  -2.35784522E+004  0.00000000E+000                      1274.30  <-- SCF
      1  -2.35796612E+004  3.42390690E+000   5.03731173E-002    1313.35  <-- SCF
      2  -2.35798001E+004  3.42381206E+000   5.78873205E-003    1357.62  <-- SCF
      3  -2.35798014E+004  3.42380921E+000   5.18656803E-005    1395.23  <-- SCF
      4  -2.35798024E+004  3.42384958E+000   4.25334297E-005    1434.63  <-- SCF
      5  -2.35798025E+004  3.42384207E+000   3.40860127E-006    1476.38  <-- SCF
      6  -2.35798025E+004  3.42383420E+000   1.31285197E-006    1517.46  <-- SCF
      7  -2.35798025E+004  3.42383081E+000  -2.01337689E-008    1551.58  <-- SCF
      8  -2.35798025E+004  3.42382397E+000  -9.80291216E-008    1582.75  <-- SCF
      9  -2.35798025E+004  3.42381612E+000  -1.05586084E-007    1614.87  <-- SCF
     10  -2.35798025E+004  3.42380231E+000  -1.37044792E-007    1646.91  <-- SCF
     11  -2.35798025E+004  3.42379992E+000  -1.83420726E-008    1676.24  <-- SCF
     12  -2.35798025E+004  3.42379869E+000  -1.41635531E-008    1705.79  <-- SCF
     13  -2.35798025E+004  3.42379852E+000  -5.13082544E-009    1735.05  <-- SCF
     14  -2.35798025E+004  3.42379866E+000  -1.01417748E-009    1763.63  <-- SCF
------------------------------------------------------------------------ <-- SCF
 
Final energy, E             =  -23579.80249550     eV
Final free energy (E-TS)    =  -23579.80250285     eV
(energies not corrected for finite basis set)
 
NB est. 0K energy (E-0.5TS)      =  -23579.80249917     eV
 

 ******************************** Constrained Forces ********************************
 *                                                                                  *
 *                           Cartesian components (eV/A)                            *
 * -------------------------------------------------------------------------------- *
 *                         x                    y                    z              *
 *                                                                                  *
 * P               1     -0.00000(cons'd)      0.00000(cons'd)      0.00095         *
 * P               2      0.00000(cons'd)     -0.00000(cons'd)     -0.00096         *
 * P               3      0.00000(cons'd)      0.00000(cons'd)     -0.00070         *
 * P               4      0.00000(cons'd)     -0.00000(cons'd)     -0.00078         *
 * P               5      0.00000(cons'd)      0.00000(cons'd)      0.00079         *
 * P               6      0.00000(cons'd)      0.00000(cons'd)     -0.00057         *
 * P               7      0.00000(cons'd)      0.00000(cons'd)      0.00062         *
 * P               8      0.00000(cons'd)      0.00000(cons'd)      0.00059         *
 * P               9      0.00000(cons'd)     -0.00000(cons'd)     -0.00090         *
 * P              10      0.00000(cons'd)     -0.00000(cons'd)     -0.00062         *
 * P              11     -0.00000(cons'd)      0.00000(cons'd)      0.00093         *
 * P              12     -0.00000(cons'd)      0.00000(cons'd)      0.00067         *
 * In              1      0.00000(cons'd)      0.00000(cons'd)      0.00013         *
 * In              2      0.00000(cons'd)      0.00000(cons'd)     -0.00017         *
 * In              3      0.00000(cons'd)      0.00000(cons'd)     -0.00019         *
 * In              4      0.00000(cons'd)      0.00000(cons'd)     -0.00005         *
 * In              5      0.00000(cons'd)      0.00000(cons'd)      0.00009         *
 * In              6      0.00000(cons'd)     -0.00000(cons'd)      0.00013         *
 * In              7      0.00000(cons'd)      0.00000(cons'd)      0.00004         *
 * In              8      0.00000(cons'd)      0.00000(cons'd)      0.00004         *
 * In              9      0.00000(cons'd)      0.00000(cons'd)     -0.00014         *
 * In             10      0.00000(cons'd)      0.00000(cons'd)      0.00001         *
 * In             11      0.00000(cons'd)      0.00000(cons'd)      0.00022         *
 * In             12      0.00000(cons'd)      0.00000(cons'd)     -0.00012         *
 *                                                                                  *
 ************************************************************************************
  
 +------------+-------------+-------------+-----------------+ <-- min LBFGS
 |    Step    |   lambda    |   F.delta'  |    enthalpy     | <-- min LBFGS
 +------------+-------------+-------------+-----------------+ <-- min LBFGS
 |  previous  |    0.000000 |    0.019026 |   -23579.802494 | <-- min LBFGS
 | trial step |    1.000000 |    0.003412 |   -23579.802503 | <-- min LBFGS
 +------------+-------------+-------------+-----------------+ <-- min LBFGS
  
 LBFGS: finished iteration     1 with enthalpy= -2.35798025E+004 eV
  
 +-----------+-----------------+-----------------+------------+-----+ <-- LBFGS
 | Parameter |      value      |    tolerance    |    units   | OK? | <-- LBFGS
 +-----------+-----------------+-----------------+------------+-----+ <-- LBFGS
 |  dE/ion   |   3.702294E-007 |   2.000000E-005 |         eV | Yes | <-- LBFGS
 |  |F|max   |   9.627832E-004 |   1.000000E-003 |       eV/A | Yes | <-- LBFGS
 |  |dR|max  |   3.031952E-004 |   1.000000E-003 |          A | Yes | <-- LBFGS
 +-----------+-----------------+-----------------+------------+-----+ <-- LBFGS
  
 Hirshfeld supercell size:           4           4           1
Standard grid dimensions: 180 180 360
Fine grid dimensions:     180 180 360

 LBFGS: Geometry optimization completed successfully.

================================================================================
 LBFGS: Final Configuration:
================================================================================

                           -------------------------------
                                     Cell Contents
                           -------------------------------

            xxxxxxxxxxxxxxxxxxxxxxxxxxxxxxxxxxxxxxxxxxxxxxxxxxxxxxxxxxxxxxxxx
            x  Element         Atom        Fractional coordinates of atoms  x
            x                 Number           u          v          w      x
            x---------------------------------------------------------------x
            x  P                 1         0.500000   0.000000   0.458342   x
            x  P                 2         0.000000   0.500000   0.208325   x
            x  P                 3         0.000000   0.500000   0.374992   x
            x  P                 4         0.000000   0.500000   0.874991   x
            x  P                 5         0.500000   0.000000   0.625008   x
            x  P                 6         0.000000   0.500000   0.541658   x
            x  P                 7         0.500000   0.000000   0.291675   x
            x  P                 8         0.500000   0.000000   0.791675   x
            x  P                 9         0.000000   0.500000   0.708325   x
            x  P                10         0.000000   0.500000   0.041658   x
            x  P                11         0.500000   0.000000   0.958342   x
            x  P                12         0.500000   0.000000   0.125008   x
            x  In                1         0.500000   0.500000   0.416667   x
            x  In                2         0.000000   0.000000   0.833333   x
            x  In                3         0.500000   0.500000   0.750000   x
            x  In                4         0.000000   0.000000   0.666667   x
            x  In                5         0.500000   0.500000   0.583333   x
            x  In                6         0.000000   0.000000   0.500000   x
            x  In                7         0.000000   0.000000   0.333333   x
            x  In                8         0.500000   0.500000   0.916667   x
            x  In                9         0.000000   0.000000   0.166667   x
            x  In               10         0.500000   0.500000   0.083333   x
            x  In               11         0.000000   0.000000  -0.000000   x
            x  In               12         0.500000   0.500000   0.250000   x
            xxxxxxxxxxxxxxxxxxxxxxxxxxxxxxxxxxxxxxxxxxxxxxxxxxxxxxxxxxxxxxxxx


 LBFGS: Final Enthalpy     = -2.35798025E+004 eV
 LBFGS: Final <frequency>  unchanged from initial value

 ******************* Unconstrained Forces *******************
 *                                                          *
 *               Cartesian components (eV/A)                *
 * -------------------------------------------------------- *
 *                         x            y            z      *
 *                                                          *
 * P               1      0.00001     -0.00001      0.00095 *
 * P               2     -0.00000      0.00001     -0.00096 *
 * P               3     -0.00001      0.00001     -0.00070 *
 * P               4     -0.00000      0.00000     -0.00078 *
 * P               5      0.00000     -0.00001      0.00079 *
 * P               6     -0.00001      0.00000     -0.00057 *
 * P               7      0.00001     -0.00000      0.00062 *
 * P               8     -0.00000     -0.00000      0.00059 *
 * P               9     -0.00000      0.00000     -0.00090 *
 * P              10     -0.00000      0.00001     -0.00062 *
 * P              11      0.00001     -0.00000      0.00093 *
 * P              12      0.00001     -0.00001      0.00067 *
 * In              1      0.00001      0.00001      0.00013 *
 * In              2     -0.00000     -0.00000     -0.00017 *
 * In              3      0.00000      0.00000     -0.00019 *
 * In              4     -0.00001     -0.00000     -0.00005 *
 * In              5      0.00000      0.00000      0.00009 *
 * In              6     -0.00001     -0.00001      0.00013 *
 * In              7     -0.00001     -0.00001      0.00004 *
 * In              8     -0.00000     -0.00000      0.00004 *
 * In              9     -0.00001     -0.00001     -0.00014 *
 * In             10      0.00001      0.00001      0.00001 *
 * In             11     -0.00001     -0.00001      0.00022 *
 * In             12      0.00001      0.00001     -0.00012 *
 *                                                          *
 ************************************************************

 ******************************** Constrained Forces ********************************
 *                                                                                  *
 *                           Cartesian components (eV/A)                            *
 * -------------------------------------------------------------------------------- *
 *                         x                    y                    z              *
 *                                                                                  *
 * P               1      0.00000(cons'd)      0.00000(cons'd)      0.00095         *
 * P               2      0.00000(cons'd)     -0.00000(cons'd)     -0.00096         *
 * P               3      0.00000(cons'd)      0.00000(cons'd)     -0.00070         *
 * P               4      0.00000(cons'd)      0.00000(cons'd)     -0.00078         *
 * P               5     -0.00000(cons'd)      0.00000(cons'd)      0.00079         *
 * P               6      0.00000(cons'd)     -0.00000(cons'd)     -0.00057         *
 * P               7      0.00000(cons'd)      0.00000(cons'd)      0.00062         *
 * P               8      0.00000(cons'd)      0.00000(cons'd)      0.00059         *
 * P               9      0.00000(cons'd)     -0.00000(cons'd)     -0.00090         *
 * P              10      0.00000(cons'd)     -0.00000(cons'd)     -0.00062         *
 * P              11     -0.00000(cons'd)      0.00000(cons'd)      0.00093         *
 * P              12     -0.00000(cons'd)      0.00000(cons'd)      0.00067         *
 * In              1      0.00000(cons'd)      0.00000(cons'd)      0.00013         *
 * In              2      0.00000(cons'd)      0.00000(cons'd)     -0.00017         *
 * In              3      0.00000(cons'd)      0.00000(cons'd)     -0.00019         *
 * In              4      0.00000(cons'd)      0.00000(cons'd)     -0.00005         *
 * In              5      0.00000(cons'd)      0.00000(cons'd)      0.00009         *
 * In              6      0.00000(cons'd)      0.00000(cons'd)      0.00013         *
 * In              7      0.00000(cons'd)      0.00000(cons'd)      0.00004         *
 * In              8      0.00000(cons'd)      0.00000(cons'd)      0.00004         *
 * In              9      0.00000(cons'd)      0.00000(cons'd)     -0.00014         *
 * In             10      0.00000(cons'd)      0.00000(cons'd)      0.00001         *
 * In             11      0.00000(cons'd)      0.00000(cons'd)      0.00022         *
 * In             12     -0.00000(cons'd)     -0.00000(cons'd)     -0.00012         *
 *                                                                                  *
 ************************************************************************************

 Pseudo atomic calculation performed for P 3s2 3p3

 Converged in 23 iterations to a total energy of -208.0292 eV

 Pseudo atomic calculation performed for In 4d10 5s2 5p1

 Converged in 42 iterations to a total energy of -1747.4501 eV
Charge spilling parameter for spin component 1 = 0.15%

            Orbital Populations       
     Ion    Atom   Orbital             Charge
  -------------------------------------------
      P     1      S                    1.735
      P     1      Px                   1.313
      P     1      Py                   1.313
      P     1      Pz                   1.313
      P     2      S                    1.735
      P     2      Px                   1.313
      P     2      Py                   1.313
      P     2      Pz                   1.313
      P     3      S                    1.735
      P     3      Px                   1.313
      P     3      Py                   1.313
      P     3      Pz                   1.313
      P     4      S                    1.735
      P     4      Px                   1.313
      P     4      Py                   1.313
      P     4      Pz                   1.313
      P     5      S                    1.735
      P     5      Px                   1.313
      P     5      Py                   1.313
      P     5      Pz                   1.313
      P     6      S                    1.735
      P     6      Px                   1.313
      P     6      Py                   1.313
      P     6      Pz                   1.313
      P     7      S                    1.735
      P     7      Px                   1.313
      P     7      Py                   1.313
      P     7      Pz                   1.313
      P     8      S                    1.735
      P     8      Px                   1.313
      P     8      Py                   1.313
      P     8      Pz                   1.313
      P     9      S                    1.735
      P     9      Px                   1.313
      P     9      Py                   1.313
      P     9      Pz                   1.313
      P    10      S                    1.735
      P    10      Px                   1.313
      P    10      Py                   1.313
      P    10      Pz                   1.313
      P    11      S                    1.735
      P    11      Px                   1.313
      P    11      Py                   1.313
      P    11      Pz                   1.313
      P    12      S                    1.735
      P    12      Px                   1.313
      P    12      Py                   1.313
      P    12      Pz                   1.313
     In     1      Dzz                  1.999
     In     1      Dzy                  1.997
     In     1      Dzx                  1.997
     In     1      Dxx-yy               1.997
     In     1      Dxy                  1.999
     In     1      S                    1.414
     In     1      Px                   0.480
     In     1      Py                   0.480
     In     1      Pz                   0.481
     In     1      S                   -0.520
     In     2      Dzz                  1.999
     In     2      Dzy                  1.997
     In     2      Dzx                  1.997
     In     2      Dxx-yy               1.997
     In     2      Dxy                  1.999
     In     2      S                    1.415
     In     2      Px                   0.480
     In     2      Py                   0.480
     In     2      Pz                   0.481
     In     2      S                   -0.520
     In     3      Dzz                  1.999
     In     3      Dzy                  1.997
     In     3      Dzx                  1.997
     In     3      Dxx-yy               1.997
     In     3      Dxy                  1.999
     In     3      S                    1.414
     In     3      Px                   0.480
     In     3      Py                   0.480
     In     3      Pz                   0.481
     In     3      S                   -0.520
     In     4      Dzz                  1.999
     In     4      Dzy                  1.997
     In     4      Dzx                  1.997
     In     4      Dxx-yy               1.997
     In     4      Dxy                  1.999
     In     4      S                    1.415
     In     4      Px                   0.480
     In     4      Py                   0.480
     In     4      Pz                   0.481
     In     4      S                   -0.520
     In     5      Dzz                  1.999
     In     5      Dzy                  1.997
     In     5      Dzx                  1.997
     In     5      Dxx-yy               1.997
     In     5      Dxy                  1.999
     In     5      S                    1.414
     In     5      Px                   0.480
     In     5      Py                   0.480
     In     5      Pz                   0.481
     In     5      S                   -0.520
     In     6      Dzz                  1.999
     In     6      Dzy                  1.997
     In     6      Dzx                  1.997
     In     6      Dxx-yy               1.997
     In     6      Dxy                  1.999
     In     6      S                    1.415
     In     6      Px                   0.480
     In     6      Py                   0.480
     In     6      Pz                   0.481
     In     6      S                   -0.520
     In     7      Dzz                  1.999
     In     7      Dzy                  1.997
     In     7      Dzx                  1.997
     In     7      Dxx-yy               1.997
     In     7      Dxy                  1.999
     In     7      S                    1.415
     In     7      Px                   0.480
     In     7      Py                   0.480
     In     7      Pz                   0.481
     In     7      S                   -0.520
     In     8      Dzz                  1.999
     In     8      Dzy                  1.997
     In     8      Dzx                  1.997
     In     8      Dxx-yy               1.997
     In     8      Dxy                  1.999
     In     8      S                    1.414
     In     8      Px                   0.480
     In     8      Py                   0.480
     In     8      Pz                   0.481
     In     8      S                   -0.520
     In     9      Dzz                  1.999
     In     9      Dzy                  1.997
     In     9      Dzx                  1.997
     In     9      Dxx-yy               1.997
     In     9      Dxy                  1.999
     In     9      S                    1.415
     In     9      Px                   0.480
     In     9      Py                   0.480
     In     9      Pz                   0.481
     In     9      S                   -0.520
     In    10      Dzz                  1.999
     In    10      Dzy                  1.997
     In    10      Dzx                  1.997
     In    10      Dxx-yy               1.997
     In    10      Dxy                  1.999
     In    10      S                    1.414
     In    10      Px                   0.480
     In    10      Py                   0.480
     In    10      Pz                   0.481
     In    10      S                   -0.520
     In    11      Dzz                  1.999
     In    11      Dzy                  1.997
     In    11      Dzx                  1.997
     In    11      Dxx-yy               1.997
     In    11      Dxy                  1.999
     In    11      S                    1.415
     In    11      Px                   0.480
     In    11      Py                   0.480
     In    11      Pz                   0.481
     In    11      S                   -0.520
     In    12      Dzz                  1.999
     In    12      Dzy                  1.997
     In    12      Dzx                  1.997
     In    12      Dxx-yy               1.997
     In    12      Dxy                  1.999
     In    12      S                    1.414
     In    12      Px                   0.480
     In    12      Py                   0.480
     In    12      Pz                   0.481
     In    12      S                   -0.520
  -------------------------------------------
                           Total:     216.000
  -------------------------------------------

     Atomic Populations (Mulliken)
     -----------------------------
Species          Ion     s       p       d       f      Total   Charge (e)
==========================================================================
  P               1     1.735   3.940   0.000   0.000   5.674    -0.674
  P               2     1.735   3.940   0.000   0.000   5.674    -0.674
  P               3     1.735   3.940   0.000   0.000   5.674    -0.674
  P               4     1.735   3.940   0.000   0.000   5.674    -0.674
  P               5     1.735   3.940   0.000   0.000   5.674    -0.674
  P               6     1.735   3.940   0.000   0.000   5.674    -0.674
  P               7     1.735   3.940   0.000   0.000   5.674    -0.674
  P               8     1.735   3.940   0.000   0.000   5.674    -0.674
  P               9     1.735   3.940   0.000   0.000   5.674    -0.674
  P              10     1.735   3.940   0.000   0.000   5.674    -0.674
  P              11     1.735   3.940   0.000   0.000   5.674    -0.674
  P              12     1.735   3.940   0.000   0.000   5.674    -0.674
  In              1     0.895   1.442   9.989   0.000  12.326     0.674
  In              2     0.894   1.442   9.989   0.000  12.326     0.674
  In              3     0.895   1.442   9.989   0.000  12.326     0.674
  In              4     0.894   1.442   9.989   0.000  12.326     0.674
  In              5     0.895   1.442   9.989   0.000  12.326     0.674
  In              6     0.894   1.442   9.989   0.000  12.326     0.674
  In              7     0.894   1.442   9.989   0.000  12.326     0.674
  In              8     0.895   1.442   9.989   0.000  12.326     0.674
  In              9     0.894   1.442   9.989   0.000  12.326     0.674
  In             10     0.895   1.442   9.989   0.000  12.326     0.674
  In             11     0.894   1.442   9.989   0.000  12.326     0.674
  In             12     0.895   1.442   9.989   0.000  12.326     0.674
==========================================================================

                 Bond                   Population      Length (A)
======================================================================
              P 1  -- In 6                   1.16        2.55497
              P 4  -- In 2                   1.16        2.55497
              P 10 -- In 11                  1.16        2.55497
              P 7  -- In 7                   1.16        2.55497
              P 5  -- In 4                   1.16        2.55497
              P 9  -- In 4                   1.16        2.55497
              P 2  -- In 9                   1.16        2.55497
              P 12 -- In 9                   1.16        2.55497
              P 8  -- In 2                   1.16        2.55497
              P 6  -- In 6                   1.16        2.55497
              P 3  -- In 7                   1.16        2.55497
              P 11 -- In 11                  1.16        2.55497
              P 11 -- In 8                   1.16        2.55531
              P 3  -- In 1                   1.16        2.55531
              P 6  -- In 5                   1.16        2.55531
              P 8  -- In 3                   1.16        2.55531
              P 12 -- In 10                  1.16        2.55531
              P 2  -- In 12                  1.16        2.55531
              P 9  -- In 3                   1.16        2.55531
              P 5  -- In 5                   1.16        2.55531
              P 7  -- In 12                  1.16        2.55531
              P 10 -- In 10                  1.16        2.55531
              P 4  -- In 8                   1.16        2.55531
              P 1  -- In 1                   1.16        2.55532
======================================================================

 Hirshfeld supercell size:           4           4           1
Standard grid dimensions: 180 180 360
Fine grid dimensions:     180 180 360


     Hirshfeld Analysis
     ------------------
Species   Ion     Hirshfeld Charge (e)
======================================
  P        1                -0.24
  P        2                -0.24
  P        3                -0.24
  P        4                -0.24
  P        5                -0.24
  P        6                -0.24
  P        7                -0.24
  P        8                -0.24
  P        9                -0.24
  P       10                -0.24
  P       11                -0.24
  P       12                -0.24
  In       1                 0.24
  In       2                 0.24
  In       3                 0.24
  In       4                 0.24
  In       5                 0.24
  In       6                 0.24
  In       7                 0.24
  In       8                 0.24
  In       9                 0.24
  In      10                 0.24
  In      11                 0.24
  In      12                 0.24
======================================

 
 A BibTeX formatted list of references used in this run has been written to 
 StackingFaultStructs_001_110_0.bib
 
Initialisation time =     22.61 s
Calculation time    =   1893.46 s
Finalisation time   =     62.63 s
Total time          =   1978.71 s
Peak Memory Use     = 9995064 kB
 
Overall parallel efficiency rating: Good (77%)
 
Data was distributed by:-
k-point (68-way); efficiency rating: Good (78%)
