 +-------------------------------------------------+
 |                                                 |
 |      CCC   AA    SSS  TTTTT  EEEEE  PPPP        |
 |     C     A  A  S       T    E      P   P       |
 |     C     AAAA   SS     T    EEE    PPPP        |
 |     C     A  A     S    T    E      P           |
 |      CCC  A  A  SSS     T    EEEEE  P           |
 |                                                 |
 +-------------------------------------------------+
 |                                                 |
 | Welcome to Academic Release CASTEP version 24.1 |
 | Ab Initio Total Energy Program                  |
 |                                                 |
 | Authors:                                        |
 | M. Segall, M. Probert, C. Pickard, P. Hasnip,   |
 | S. Clark, K. Refson, J. R. Yates,               |
 | A. Bartok-Partay, M. Payne                      |
 |                                                 |
 | Contributors:                                   |
 | P. Lindan, P. Haynes, J. White, V. Milman,      |
 | N. Govind, M. Gibson, P. Tulip, V. Cocula,      |
 | B. Montanari, D. Quigley, M. Glover,            |
 | L. Bernasconi, A. Perlov, M. Plummer,           |
 | E. McNellis, J. Meyer, J. Gale, D. Jochym       |
 | J. Aarons, B. Walker, R. Gillen, D. Jones       |
 | T. Green, I. J. Bush, C. J. Armstrong,          |
 | E. J. Higgins, E. L. Brown, M. S. McFly,        |
 | J. Wilkins, B-C. Shih, P. J. P. Byrne,          |
 | R. J. Maurer, J. C. Womack, J. Dziedzic,        |
 | L. LeBlanc, T. K. Stenczel, J. Kermode,         |
 | S. Sturniolo, B. Shi, B. Durham, M. Evans,      |
 | M. J. Smith, A. Tamerus, Z. Hawkhead,           |
 | V. Ravindran, T. Hollins, S. A. Joyce,          |
 | R. T. Strong, A. M. Reilly, S. J. Donaldson     |
 |                                                 |
 | Copyright (c) 2000 - 2023                       |
 |                                                 |
 |     Distributed under license from Cambridge    |
 |     Enterprise for academic use only.           |
 |                                                 |
 | Please cite                                     |
 |                                                 |
 |     "First principles methods using CASTEP"     |
 |                                                 |
 |         Zeitschrift fuer Kristallographie       |
 |           220(5-6) pp. 567-570 (2005)           |
 |                                                 |
 | S. J. Clark, M. D. Segall, C. J. Pickard,       |
 | P. J. Hasnip, M. J. Probert, K. Refson,         |
 | M. C. Payne                                     |
 |                                                 |
 |       in all publications arising from          |
 |              your use of CASTEP                 |
 |                                                 |
 +-------------------------------------------------+
 |                                                 |
 |              http://www.castep.org              |
 |                                                 |
 +-------------------------------------------------+



 Compiled for  GNU 11.2.0 on 04-04-2024 18:39:17
 from code version 6355fd106 Castep241_branch Thu Mar 7 17:56:19 2024 +0000
 Compiler: GNU Fortran 11.2.0; Optimisation: FAST
 Comms   : MPI VERSION : CRAY MPICH version 8.1.23.14 (ANL base 3.4a2)
 MATHLIBS: default (LAPACK version 3.10.1)
 FFT Lib : fftw3 version commercial-fftw-3.3.10-sse2-avx-avx2-avx2_128
 Fundamental constants values: CODATA 2018

 Run started: Sat, 18 Jan 2025 07:51:48 +0000

 Atomic calculation performed for P: 1s2 2s2 2p6 3s2 3p3

 Converged in 47 iterations to an ae energy of -9309.074 eV

   ============================================================                
   | Pseudopotential Report - Date of generation 18-01-2025   |                
   ------------------------------------------------------------                
   | Element: P Ionic charge:  5.00 Level of theory: RSCAN    |                
   | Atomic Solver: Koelling-Harmon                           |                
   |                                                          |                
   |               Reference Electronic Structure             |                
   |         Orbital         Occupation         Energy        |                
   |            3s              2.000           -0.535        |                
   |            3p              3.000           -0.209        |                
   |                                                          |                
   |                 Pseudopotential Definition               |                
   |        Beta     l      e      Rc     scheme   norm       |                
   |          1      0   -0.535   1.807     qc      0         |                
   |          2      0    0.250   1.807     qc      0         |                
   |          3      1   -0.209   1.807     qc      0         |                
   |          4      1    0.250   1.807     qc      0         |                
   |          5      2    0.000   1.807     qc      0         |                
   |          6      2    0.250   1.807     qc      0         |                
   |         loc     3    0.000   1.807     pn      0         |                
   |                                                          |                
   | Augmentation charge Rinner = 1.263                       |                
   | Partial core correction Rc = 1.263                       |                
   ------------------------------------------------------------                
   | "3|1.8|4|4|5|30:31:32"                                   |                
   ------------------------------------------------------------                
   |      Author: Chris J. Pickard, Cambridge University      |                
   ============================================================                
 Warning: otfg_output_psp cannot write out meta-GGA pseudopotentials presently.

 Atomic calculation performed for In:
 1s2 2s2 2p6 3s2 3p6 3d10 4s2 4p6 4d10 5s2 5p1

 Converged in 84 iterations to an ae energy of -160093.328 eV

   ============================================================                
   | Pseudopotential Report - Date of generation 18-01-2025   |                
   ------------------------------------------------------------                
   | Element: In Ionic charge: 13.00 Level of theory: RSCAN   |                
   | Atomic Solver: Koelling-Harmon                           |                
   |                                                          |                
   |               Reference Electronic Structure             |                
   |         Orbital         Occupation         Energy        |                
   |            4d             10.000           -0.711        |                
   |            5s              2.000           -0.313        |                
   |            5p              1.000           -0.095        |                
   |                                                          |                
   |                 Pseudopotential Definition               |                
   |        Beta     l      e      Rc     scheme   norm       |                
   |          1      0   -0.313   2.501     qc      0         |                
   |          2      0    0.250   2.501     qc      0         |                
   |          3      1   -0.095   2.501     qc      0         |                
   |          4      1    0.250   2.501     qc      0         |                
   |          5      2   -0.711   2.207     qc      0         |                
   |          6      2    0.250   2.207     qc      0         |                
   |         loc     3    0.000   2.501     pn      0         |                
   |                                                          |                
   | Augmentation charge Rinner = 1.504                       |                
   | Partial core correction Rc = 1.504                       |                
   ------------------------------------------------------------                
   | "3|2.5|2.5|1.5|7|8|9|50:51:42U2.2U2.2"                   |                
   ------------------------------------------------------------                
   |      Author: Chris J. Pickard, Cambridge University      |                
   ============================================================                
 Warning: otfg_output_psp cannot write out meta-GGA pseudopotentials presently.

 Pseudo atomic calculation performed for P 3s2 3p3

 Converged in 23 iterations to a total energy of -208.0292 eV

 Pseudo atomic calculation performed for In 4d10 5s2 5p1

 Converged in 42 iterations to a total energy of -1747.4501 eV
 Calculation parallelised over 80 processes.
 Data is distributed by G-vector(2-way) and k-point(40-way)
 Each process may use up to 16 threads.

 ************************************ Title ************************************
 

 ***************************** General Parameters ******************************
  
 output verbosity                               : normal  (1)
 write checkpoint data to                       : StackingFaultStructs_110_1-10_9.check
 type of calculation                            : geometry optimization
 stress calculation                             : off
 density difference calculation                 : off
 electron localisation func (ELF) calculation   : off
 Hirshfeld analysis                             : on
 polarisation (Berry phase) analysis            : off
 molecular orbital projected DOS                : off
 deltaSCF calculation                           : off
 unlimited duration calculation
 timing information                             : on
 memory usage estimate                          : on
 write extra output files                       : on
 write final potential to formatted file        : off
 write final density to formatted file          : off
 write BibTeX reference list                    : on
 write OTFG pseudopotential files               : on
 write electrostatic potential file             : on
 write bands file                               : on
 checkpoint writing                             : off
  
 output         length unit                     : A
 output           mass unit                     : amu
 output           time unit                     : ps
 output         charge unit                     : e
 output           spin unit                     : hbar/2
 output         energy unit                     : eV
 output          force unit                     : eV/A
 output       velocity unit                     : A/ps
 output       pressure unit                     : GPa
 output     inv_length unit                     : 1/A
 output      frequency unit                     : cm-1
 output force constant unit                     : eV/A**2
 output         volume unit                     : A**3
 output   IR intensity unit                     : (D/A)**2/amu
 output         dipole unit                     : D
 output         efield unit                     : eV/A/e
 output        entropy unit                     : J/mol/K
 output    efield chi2 unit                     : pm/V
  
 wavefunctions paging                           : none
 random number generator seed                   :   75149058
 data distribution                              : optimal for this architecture
 optimization strategy                          : balance speed and memory

 *********************** Exchange-Correlation Parameters ***********************
  
 using functional                               : RSCAN
 relativistic treatment                         : Koelling-Harmon
 DFT+D: Semi-empirical dispersion correction    : off

 ************************* Pseudopotential Parameters **************************
  
 pseudopotential representation                 : reciprocal space
 <beta|phi> representation                      : reciprocal space
 spin-orbit coupling                            : off

 **************************** Basis Set Parameters *****************************
  
 plane wave basis set cut-off                   :   900.0000   eV
 size of standard grid                          :     2.0000
 size of   fine   gmax                          :    30.7390   1/A
 finite basis set correction                    : none

 **************************** Electronic Parameters ****************************
  
 number of  electrons                           :  288.0    
 net charge of system                           :  0.000    
 treating system as non-spin-polarized
 number of bands                                :        173

 ********************* Electronic Minimization Parameters **********************
  
 Method: Treating system as metallic with density mixing treatment of electrons,
         and number of  SD  steps               :          1
         and number of  CG  steps               :          4
  
 total energy / atom convergence tol.           : 0.1000E-07   eV
 eigen-energy convergence tolerance             : 0.2222E-08   eV
 max force / atom convergence tol.              : ignored
 convergence tolerance window                   :          3   cycles
 max. number of SCF cycles                      :         50
 number of fixed-spin iterations                :         10
 smearing scheme                                : Gaussian
 smearing width                                 : 0.2000       eV
 Fermi energy convergence tolerance             : 0.2721E-13   eV
 periodic dipole correction                     : NONE

 ************************** Density Mixing Parameters **************************
  
 density-mixing scheme                          : Pulay
 max. length of mixing history                  :         15
 charge density mixing amplitude                : 0.5000    
 cut-off energy for mixing                      :  900.0       eV

 *********************** Population Analysis Parameters ************************
  
 Population analysis with cutoff                :  3.000       A
 Population analysis output                     : summary and pdos components

 ********************** Geometry Optimization Parameters ***********************
  
 optimization method                            : LBFGS
 max. no. of LBFGS updates                      : unbounded
 preconditioned LBFGS is activated
 preconditioner type                            : EXP
     stabilization constant                     :     0.1000
     parameter A                                :     3.0000
     nearest neighbor distance                  : automatic
     cut-off distance                           : automatic
     parameter mu                               : automatic
 variable cell method                           : fixed basis quality
 max. number of steps                           :         30
 estimated bulk modulus                         :  500.0       GPa
 estimated <frequency>                          :  1668.       cm-1
 geom line minimiser                            : on
 with line minimiser tolerance                  :     0.4000
 total energy convergence tolerance             : 0.2000E-04   eV/atom
        max ionic |force| tolerance             : 0.1000E-02   eV/A
 max ionic |displacement| tolerance             : 0.1000E-02   A
   max |stress component| tolerance             : 0.1000       GPa
 convergence tolerance window                   :          2   steps
 backup results every                           :          5   steps
 write geom trajectory file                     : on

 *******************************************************************************
  

                           -------------------------------
                                      Unit Cell
                           -------------------------------
        Real Lattice(A)                      Reciprocal Lattice(1/A)
     5.9012740     0.0000000     0.0000000        1.064716756   0.000000000   0.000000000
     0.0000000     8.3456610     0.0000000        0.000000000   0.752868503  -0.094108552
     0.0000000     2.0864150    16.6913220        0.000000000   0.000000000   0.376434252

                       Lattice parameters(A)       Cell Angles
                    a =      5.901274          alpha =   82.874984
                    b =      8.345661          beta  =   90.000000
                    c =     16.821217          gamma =   90.000000

                       Current cell volume =           822.048147       A**3
                                   density =             2.837630   AMU/A**3
                                           =             4.711995     g/cm^3

                           -------------------------------
                                     Cell Contents
                           -------------------------------
                         Total number of ions in cell =   32
                      Total number of species in cell =    2
                        Max number of any one species =   16

            xxxxxxxxxxxxxxxxxxxxxxxxxxxxxxxxxxxxxxxxxxxxxxxxxxxxxxxxxxxx
            x  Element    Atom        Fractional coordinates of atoms  x
            x            Number           u          v          w      x
            x----------------------------------------------------------x
            x  P            1         0.750000  -0.156831   0.627326   x 
            x  P            2         0.750000   0.279383   0.882470   x 
            x  P            3         0.250000   0.562612   0.749551   x 
            x  P            4         0.750000  -0.031362   0.125449   x 
            x  P            5         0.750000   0.343169   0.627326   x 
            x  P            6         0.250000   0.625184   0.499264   x 
            x  P            7         0.750000   0.406066   0.375736   x 
            x  P            8         0.250000   0.688081   0.247674   x 
            x  P            9         0.750000  -0.093934   0.375736   x 
            x  P           10         0.750000   0.468638   0.125449   x 
            x  P           11         0.250000   0.751868  -0.007470   x 
            x  P           12         0.250000   0.125184   0.499264   x 
            x  P           13         0.750000  -0.220618   0.882470   x 
            x  P           14         0.250000   0.062612   0.749551   x 
            x  P           15         0.250000   0.188081   0.247674   x 
            x  P           16         0.250000   0.251868  -0.007470   x 
            x  In           1         0.500000   0.032069   0.871723   x 
            x  In           2         0.500000   0.593955   0.624179   x 
            x  In           3         0.000000   0.374555   0.501781   x 
            x  In           4         0.500000   0.656695   0.373220   x 
            x  In           5         0.000000   0.437295   0.250821   x 
            x  In           6         0.500000   0.720122   0.119512   x 
            x  In           7         0.000000   0.499181   0.003277   x 
            x  In           8         0.000000   0.311128   0.755488   x 
            x  In           9         0.000000  -0.188872   0.755488   x 
            x  In          10         0.500000   0.093955   0.624179   x 
            x  In          11         0.500000   0.532069   0.871723   x 
            x  In          12         0.500000   0.156695   0.373220   x 
            x  In          13         0.000000  -0.000819   0.003277   x 
            x  In          14         0.000000  -0.062705   0.250821   x 
            x  In          15         0.500000   0.220122   0.119512   x 
            x  In          16         0.000000  -0.125445   0.501781   x 
            xxxxxxxxxxxxxxxxxxxxxxxxxxxxxxxxxxxxxxxxxxxxxxxxxxxxxxxxxxxx


                         No user defined ionic velocities

                           -------------------------------
                                   Details of Species
                           -------------------------------

                               Mass of species in AMU
                                    P   30.9737600
                                    In  114.8180000

                          Electric Quadrupole Moment (Barn)
                                    P    1.0000000 No Isotope Defined
                                    In    0.7700000 Isotope115

                          Files used for pseudopotentials:
                                    P 3|1.8|4|4|5|30:31:32
                                    In 3|2.5|2.5|1.5|7|8|9|50:51:42U2.2U2.2

                           -------------------------------
                              k-Points For BZ Sampling
                           -------------------------------
                       MP grid size for SCF calculation is  6  6  2
                            with an offset of   0.083  0.083  0.250
                       Number of kpoints used =            40

                           -------------------------------
                               Symmetry and Constraints
                           -------------------------------

                      Cell is a supercell containing 2 primitive cells
                      Maximum deviation from symmetry =  0.00000         ANG

                      Number of symmetry operations   =           1
                      Number of ionic constraints     =          64
                      Point group of crystal =     1: C1, 1, 1
                      Space group of crystal =    36: Cmc2_1, C 2c -2

             Set iprint > 1 for details on symmetry rotations/translations

                         Centre of mass is NOT constrained
             Set iprint > 1 for details of linear ionic constraints

                         Number of cell constraints= 6
                         Cell constraints are:  0 0 0 0 0 0

                         External pressure/stress (GPa)
                          0.00000   0.00000   0.00000
                                    0.00000   0.00000
                                              0.00000
 
+---------------- MEMORY AND SCRATCH DISK ESTIMATES PER PROCESS --------------+
|                                                     Memory          Disk    |
| Baseline code, static data and system overhead      386.0 MB         0.0 MB |
| BLAS internal memory storage                          0.0 MB         0.0 MB |
| Model and support data                             3125.0 MB         0.0 MB |
| Electronic energy minimisation requirements         425.5 MB         0.0 MB |
| Force calculation requirements                       70.4 MB         0.0 MB |
|                                               ----------------------------- |
| Approx. total storage required per process         3936.5 MB         0.0 MB |
|                                                                             |
| Requirements will fluctuate during execution and may exceed these estimates |
+-----------------------------------------------------------------------------+
Calculating approximate eigenstates for fixed initial Hamiltonian
Cut-off for approx. calculation is   89.988 eV
Improving approx. states at cut-off of  450.000 eV
Resetting cut-off to  900.000 eV
Calculating total energy with cut-off of  900.000 eV.
------------------------------------------------------------------------ <-- SCF
SCF loop      Energy           Fermi           Energy gain       Timer   <-- SCF
                               energy          per atom          (sec)   <-- SCF
------------------------------------------------------------------------ <-- SCF
Initial  -3.15240479E+004  0.00000000E+000                       100.36  <-- SCF
      1  -3.13985407E+004  2.53182542E+000  -3.92209856E+000     174.15  <-- SCF
      2  -3.13986438E+004  2.53164534E+000   3.22123339E-003     232.68  <-- SCF
      3  -3.14322102E+004  2.86221436E+000   1.04894819E+000     295.87  <-- SCF
      4  -3.14382662E+004  2.92336676E+000   1.89249890E-001     377.29  <-- SCF
      5  -3.14348321E+004  3.18677546E+000  -1.07314324E-001     443.06  <-- SCF
      6  -3.14351525E+004  3.23449542E+000   1.00127380E-002     505.90  <-- SCF
      7  -3.14349533E+004  3.27604655E+000  -6.22352396E-003     575.41  <-- SCF
      8  -3.14358279E+004  3.29566255E+000   2.73293440E-002     642.30  <-- SCF
      9  -3.14358055E+004  3.27457692E+000  -7.00655352E-004     712.66  <-- SCF
     10  -3.14358172E+004  3.27420099E+000   3.66112830E-004     781.71  <-- SCF
     11  -3.14358172E+004  3.27214965E+000   1.46419302E-006     852.45  <-- SCF
     12  -3.14358174E+004  3.27265400E+000   6.55533490E-006     922.56  <-- SCF
     13  -3.14358174E+004  3.27301278E+000   1.70254980E-008     986.68  <-- SCF
     14  -3.14358174E+004  3.27302153E+000  -1.59060100E-008    1044.66  <-- SCF
     15  -3.14358174E+004  3.27313024E+000  -4.75830728E-010    1096.31  <-- SCF
     16  -3.14358174E+004  3.27313946E+000  -8.63455857E-009    1147.18  <-- SCF
------------------------------------------------------------------------ <-- SCF
 
Final energy, E             =  -31435.81087006     eV
Final free energy (E-TS)    =  -31435.81743984     eV
(energies not corrected for finite basis set)
 
NB est. 0K energy (E-0.5TS)      =  -31435.81415495     eV
 
 
+---------------- MEMORY AND SCRATCH DISK ESTIMATES PER PROCESS --------------+
|                                                     Memory          Disk    |
| Model and support data                             1838.1 MB         0.0 MB |
| Electronic energy minimisation requirements         425.5 MB         0.0 MB |
| Geometry minimisation requirements                  500.6 MB         0.0 MB |
|                                               ----------------------------- |
| Approx. total storage required per process         2764.2 MB         0.0 MB |
|                                                                             |
| Requirements will fluctuate during execution and may exceed these estimates |
+-----------------------------------------------------------------------------+
 

 ******************************** Constrained Forces ********************************
 *                                                                                  *
 *                           Cartesian components (eV/A)                            *
 * -------------------------------------------------------------------------------- *
 *                         x                    y                    z              *
 *                                                                                  *
 * P               1     -0.00000(cons'd)     -0.00000(cons'd)      0.00623         *
 * P               2      0.00000(cons'd)      0.00000(cons'd)     -0.00141         *
 * P               3      0.00000(cons'd)     -0.00000(cons'd)      0.04240         *
 * P               4      0.00000(cons'd)      0.00000(cons'd)     -0.03981         *
 * P               5      0.00000(cons'd)     -0.00000(cons'd)      0.00624         *
 * P               6      0.00000(cons'd)      0.00000(cons'd)      0.03143         *
 * P               7      0.00000(cons'd)     -0.00000(cons'd)     -0.02819         *
 * P               8     -0.00000(cons'd)      0.00000(cons'd)     -0.00435         *
 * P               9      0.00000(cons'd)     -0.00000(cons'd)     -0.02819         *
 * P              10      0.00000(cons'd)      0.00000(cons'd)     -0.03981         *
 * P              11      0.00000(cons'd)      0.00000(cons'd)      0.00592         *
 * P              12      0.00000(cons'd)      0.00000(cons'd)      0.03143         *
 * P              13      0.00000(cons'd)      0.00000(cons'd)     -0.00141         *
 * P              14      0.00000(cons'd)      0.00000(cons'd)      0.04240         *
 * P              15      0.00000(cons'd)     -0.00000(cons'd)     -0.00435         *
 * P              16      0.00000(cons'd)     -0.00000(cons'd)      0.00592         *
 * In              1      0.00000(cons'd)     -0.00000(cons'd)     -0.09250         *
 * In              2      0.00000(cons'd)      0.00000(cons'd)     -0.03241         *
 * In              3      0.00000(cons'd)      0.00000(cons'd)      0.00064         *
 * In              4      0.00000(cons'd)      0.00000(cons'd)     -0.00380         *
 * In              5      0.00000(cons'd)      0.00000(cons'd)      0.02924         *
 * In              6      0.00000(cons'd)      0.00000(cons'd)     -0.05802         *
 * In              7      0.00000(cons'd)      0.00000(cons'd)      0.08956         *
 * In              8      0.00000(cons'd)      0.00000(cons'd)      0.05506         *
 * In              9      0.00000(cons'd)      0.00000(cons'd)      0.05506         *
 * In             10      0.00000(cons'd)      0.00000(cons'd)     -0.03241         *
 * In             11      0.00000(cons'd)      0.00000(cons'd)     -0.09250         *
 * In             12      0.00000(cons'd)      0.00000(cons'd)     -0.00380         *
 * In             13      0.00000(cons'd)      0.00000(cons'd)      0.08957         *
 * In             14      0.00000(cons'd)      0.00000(cons'd)      0.02924         *
 * In             15      0.00000(cons'd)      0.00000(cons'd)     -0.05802         *
 * In             16      0.00000(cons'd)      0.00000(cons'd)      0.00064         *
 *                                                                                  *
 ************************************************************************************
 EXP precond LBFGS => estimated nearest neighbor distance :  2.562       A
 EXP precond LBFGS => estimated cutoff distance :  5.123       A

 ************************************** Forces **************************************
 *                                                                                  *
 *                           Cartesian components (eV/A)                            *
 * -------------------------------------------------------------------------------- *
 *                         x                    y                    z              *
 *                                                                                  *
 * P               1      0.11169(cons'd)      0.00338(cons'd)      0.00623         *
 * P               2      0.45676(cons'd)     -0.00361(cons'd)     -0.00141         *
 * P               3     -0.34303(cons'd)      0.00316(cons'd)      0.04240         *
 * P               4     -0.33698(cons'd)     -0.00345(cons'd)     -0.03981         *
 * P               5      0.11169(cons'd)      0.00338(cons'd)      0.00624         *
 * P               6     -0.00119(cons'd)     -0.00474(cons'd)      0.03143         *
 * P               7     -0.00001(cons'd)      0.00059(cons'd)     -0.02819         *
 * P               8      0.11556(cons'd)      0.00229(cons'd)     -0.00435         *
 * P               9     -0.00001(cons'd)      0.00060(cons'd)     -0.02819         *
 * P              10     -0.33698(cons'd)     -0.00345(cons'd)     -0.03981         *
 * P              11      0.45714(cons'd)      0.00230(cons'd)      0.00592         *
 * P              12     -0.00119(cons'd)     -0.00473(cons'd)      0.03143         *
 * P              13      0.45676(cons'd)     -0.00360(cons'd)     -0.00141         *
 * P              14     -0.34303(cons'd)      0.00317(cons'd)      0.04240         *
 * P              15      0.11555(cons'd)      0.00229(cons'd)     -0.00435         *
 * P              16      0.45714(cons'd)      0.00231(cons'd)      0.00592         *
 * In              1     -0.03635(cons'd)      0.00018(cons'd)     -0.09250         *
 * In              2      0.14316(cons'd)     -0.00008(cons'd)     -0.03241         *
 * In              3     -0.06710(cons'd)      0.00019(cons'd)      0.00064         *
 * In              4     -0.06714(cons'd)     -0.00012(cons'd)     -0.00380         *
 * In              5      0.14315(cons'd)     -0.00017(cons'd)      0.02924         *
 * In              6     -0.26956(cons'd)      0.00021(cons'd)     -0.05802         *
 * In              7     -0.03644(cons'd)     -0.00006(cons'd)      0.08956         *
 * In              8     -0.26966(cons'd)     -0.00009(cons'd)      0.05506         *
 * In              9     -0.26966(cons'd)     -0.00009(cons'd)      0.05506         *
 * In             10      0.14316(cons'd)     -0.00007(cons'd)     -0.03241         *
 * In             11     -0.03635(cons'd)      0.00017(cons'd)     -0.09250         *
 * In             12     -0.06714(cons'd)     -0.00012(cons'd)     -0.00380         *
 * In             13     -0.03644(cons'd)     -0.00005(cons'd)      0.08957         *
 * In             14      0.14315(cons'd)     -0.00017(cons'd)      0.02924         *
 * In             15     -0.26956(cons'd)      0.00021(cons'd)     -0.05802         *
 * In             16     -0.06710(cons'd)      0.00019(cons'd)      0.00064         *
 *                                                                                  *
 ************************************************************************************
 doing test perturbation to get energy scale for EXP preconditioner

                           -------------------------------
                                     Cell Contents
                           -------------------------------

            xxxxxxxxxxxxxxxxxxxxxxxxxxxxxxxxxxxxxxxxxxxxxxxxxxxxxxxxxxxxxxxxx
            x  Element         Atom        Fractional coordinates of atoms  x
            x                 Number           u          v          w      x
            x---------------------------------------------------------------x
            x  P                 1         0.753653   0.845925   0.628235   x
            x  P                 2         0.753653   0.280982   0.883665   x
            x  P                 3         0.251420   0.564931   0.750606   x
            x  P                 4         0.753653   0.971573   0.125643   x
            x  P                 5         0.753653   0.344839   0.628235   x
            x  P                 6         0.251420   0.627581   0.500006   x
            x  P                 7         0.753653   0.407822   0.376305   x
            x  P                 8         0.251420   0.690569   0.248055   x
            x  P                 9         0.753653   0.908907   0.376305   x
            x  P                10         0.753653   0.470487   0.125643   x
            x  P                11         0.251420   0.754527   0.993824   x
            x  P                12         0.251420   0.126003   0.500006   x
            x  P                13         0.753653   0.782067   0.883665   x
            x  P                14         0.251420   0.063353   0.750606   x
            x  P                15         0.251420   0.188991   0.248055   x
            x  P                16         0.251420   0.253442   0.993824   x
            x  In                1         0.502684   0.032777   0.872907   x
            x  In                2         0.502684   0.596312   0.625084   x
            x  In                3         0.000000   0.376267   0.502526   x
            x  In                4         0.502684   0.659137   0.373785   x
            x  In                5         0.000000   0.439096   0.251206   x
            x  In                6         0.502684   0.722659   0.119697   x
            x  In                7         0.000000   0.501078   0.003282   x
            x  In                8         0.000000   0.312761   0.756549   x
            x  In                9         0.000000   0.813846   0.756549   x
            x  In               10         0.502684   0.094733   0.625084   x
            x  In               11         0.502684   0.534356   0.872907   x
            x  In               12         0.502684   0.157558   0.373785   x
            x  In               13         0.000000   1.002163   0.003282   x
            x  In               14         0.000000   0.940182   0.251206   x
            x  In               15         0.502684   0.221080   0.119697   x
            x  In               16         0.000000   0.877352   0.502526   x
            xxxxxxxxxxxxxxxxxxxxxxxxxxxxxxxxxxxxxxxxxxxxxxxxxxxxxxxxxxxxxxxxx


------------------------------------------------------------------------ <-- SCF
SCF loop      Energy           Fermi           Energy gain       Timer   <-- SCF
                               energy          per atom          (sec)   <-- SCF
------------------------------------------------------------------------ <-- SCF
Initial  -3.14341150E+004  0.00000000E+000                      1230.87  <-- SCF
      1  -3.14356166E+004  3.26392903E+000   4.69250524E-002    1297.39  <-- SCF
      2  -3.14358021E+004  3.26381830E+000   5.79836858E-003    1373.09  <-- SCF
      3  -3.14358037E+004  3.26308196E+000   5.02740138E-005    1440.32  <-- SCF
      4  -3.14358051E+004  3.26239200E+000   4.41251252E-005    1509.91  <-- SCF
      5  -3.14358053E+004  3.26216333E+000   5.60794915E-006    1589.42  <-- SCF
      6  -3.14358053E+004  3.26198594E+000   9.96367308E-007    1661.59  <-- SCF
      7  -3.14358053E+004  3.26186043E+000  -5.63978321E-009    1723.75  <-- SCF
      8  -3.14358053E+004  3.26175726E+000  -7.34123093E-008    1782.44  <-- SCF
      9  -3.14358053E+004  3.26172129E+000  -1.11235342E-008    1837.64  <-- SCF
     10  -3.14358053E+004  3.26170262E+000   1.19663404E-009    1893.20  <-- SCF
     11  -3.14358053E+004  3.26170032E+000   7.13262720E-010    1942.21  <-- SCF
------------------------------------------------------------------------ <-- SCF
 
Final energy, E             =  -31435.79778079     eV
Final free energy (E-TS)    =  -31435.80534364     eV
(energies not corrected for finite basis set)
 
NB est. 0K energy (E-0.5TS)      =  -31435.80156221     eV
 

 ************************************** Forces **************************************
 *                                                                                  *
 *                           Cartesian components (eV/A)                            *
 * -------------------------------------------------------------------------------- *
 *                         x                    y                    z              *
 *                                                                                  *
 * P               1      0.03482(cons'd)     -0.09670(cons'd)      0.01396         *
 * P               2      0.37090(cons'd)     -0.00732(cons'd)      0.01194         *
 * P               3     -0.32182(cons'd)     -0.01606(cons'd)      0.05117         *
 * P               4     -0.43253(cons'd)     -0.09022(cons'd)     -0.01127         *
 * P               5     -0.03153(cons'd)      0.00007(cons'd)      0.01233         *
 * P               6      0.00689(cons'd)     -0.02139(cons'd)      0.03846         *
 * P               7     -0.15003(cons'd)      0.00750(cons'd)     -0.02106         *
 * P               8      0.12309(cons'd)     -0.02534(cons'd)      0.01469         *
 * P               9     -0.08210(cons'd)     -0.08358(cons'd)     -0.01827         *
 * P              10     -0.49675(cons'd)      0.00140(cons'd)     -0.01754         *
 * P              11      0.42323(cons'd)     -0.02528(cons'd)     -0.07436         *
 * P              12      0.05503(cons'd)      0.10542(cons'd)      0.03642         *
 * P              13      0.43605(cons'd)     -0.07893(cons'd)      0.01602         *
 * P              14     -0.27767(cons'd)      0.11764(cons'd)      0.04404         *
 * P              15      0.17083(cons'd)      0.11138(cons'd)      0.01381         *
 * P              16      0.46655(cons'd)      0.04230(cons'd)     -0.07391         *
 * In              1     -0.14050(cons'd)      0.06510(cons'd)     -0.10664         *
 * In              2      0.10388(cons'd)     -0.01516(cons'd)     -0.03928         *
 * In              3      0.10459(cons'd)     -0.00070(cons'd)     -0.00854         *
 * In              4     -0.10929(cons'd)     -0.01505(cons'd)     -0.00906         *
 * In              5      0.31701(cons'd)     -0.00001(cons'd)      0.02256         *
 * In              6     -0.25267(cons'd)     -0.01225(cons'd)      0.03078         *
 * In              7      0.08331(cons'd)      0.01862(cons'd)      0.05745         *
 * In              8     -0.10764(cons'd)     -0.00310(cons'd)      0.03909         *
 * In              9     -0.16505(cons'd)     -0.07073(cons'd)      0.04798         *
 * In             10      0.06110(cons'd)      0.09085(cons'd)     -0.03832         *
 * In             11     -0.09061(cons'd)     -0.01163(cons'd)     -0.10971         *
 * In             12     -0.14959(cons'd)      0.08988(cons'd)     -0.00997         *
 * In             13      0.03863(cons'd)     -0.02203(cons'd)      0.04962         *
 * In             14      0.25885(cons'd)     -0.07328(cons'd)      0.02359         *
 * In             15     -0.29588(cons'd)      0.09180(cons'd)      0.02115         *
 * In             16      0.04888(cons'd)     -0.07320(cons'd)     -0.00715         *
 *                                                                                  *
 ************************************************************************************
 EXP precond LBFGS => estimated parameter mu :  1.484       eV/A**2
 LBFGS: finished iteration     0 with enthalpy= -3.14358174E+004 eV
  
 +-----------+-----------------+-----------------+------------+-----+ <-- LBFGS
 | Parameter |      value      |    tolerance    |    units   | OK? | <-- LBFGS
 +-----------+-----------------+-----------------+------------+-----+ <-- LBFGS
 |  dE/ion   |   0.000000E+000 |   2.000000E-005 |         eV | No  | <-- LBFGS
 |  |F|max   |   4.970622E-001 |   1.000000E-003 |       eV/A | No  | <-- LBFGS
 |  |dR|max  |   1.867530E-015 |   1.000000E-003 |          A | No  | <-- LBFGS
 +-----------+-----------------+-----------------+------------+-----+ <-- LBFGS
  

================================================================================
 Starting LBFGS iteration          1 ...
================================================================================
  
 +------------+-------------+-------------+-----------------+ <-- min LBFGS
 |    Step    |   lambda    |   F.delta'  |    enthalpy     | <-- min LBFGS
 +------------+-------------+-------------+-----------------+ <-- min LBFGS
 |  previous  |    0.000000 |    0.134508 |   -31435.817440 | <-- min LBFGS
 +------------+-------------+-------------+-----------------+ <-- min LBFGS
  

--------------------------------------------------------------------------------
 LBFGS: starting iteration         1 with trial guess (lambda=  1.000000)
--------------------------------------------------------------------------------

                           -------------------------------
                                     Cell Contents
                           -------------------------------

            xxxxxxxxxxxxxxxxxxxxxxxxxxxxxxxxxxxxxxxxxxxxxxxxxxxxxxxxxxxxxxxxx
            x  Element         Atom        Fractional coordinates of atoms  x
            x                 Number           u          v          w      x
            x---------------------------------------------------------------x
            x  P                 1         0.750000  -0.156880   0.627519   x
            x  P                 2         0.750000   0.279385   0.882459   x
            x  P                 3         0.250000   0.562500   0.750002   x
            x  P                 4         0.750000  -0.031253   0.125011   x
            x  P                 5         0.750000   0.343120   0.627519   x
            x  P                 6         0.250000   0.625118   0.499528   x
            x  P                 7         0.750000   0.406130   0.375481   x
            x  P                 8         0.250000   0.688129   0.247482   x
            x  P                 9         0.750000  -0.093870   0.375481   x
            x  P                10         0.750000   0.468747   0.125011   x
            x  P                11         0.250000   0.751856  -0.007425   x
            x  P                12         0.250000   0.125118   0.499528   x
            x  P                13         0.750000  -0.220615   0.882459   x
            x  P                14         0.250000   0.062499   0.750002   x
            x  P                15         0.250000   0.188129   0.247482   x
            x  P                16         0.250000   0.251856  -0.007425   x
            x  In                1         0.500000   0.032210   0.871159   x
            x  In                2         0.500000   0.593960   0.624161   x
            x  In                3         0.000000   0.374528   0.501887   x
            x  In                4         0.500000   0.656727   0.373091   x
            x  In                5         0.000000   0.437296   0.250818   x
            x  In                6         0.500000   0.720277   0.118890   x
            x  In                7         0.000000   0.499040   0.003839   x
            x  In                8         0.000000   0.310976   0.756098   x
            x  In                9         0.000000  -0.189025   0.756098   x
            x  In               10         0.500000   0.093960   0.624161   x
            x  In               11         0.500000   0.532210   0.871159   x
            x  In               12         0.500000   0.156727   0.373091   x
            x  In               13         0.000000  -0.000960   0.003839   x
            x  In               14         0.000000  -0.062705   0.250818   x
            x  In               15         0.500000   0.220277   0.118890   x
            x  In               16         0.000000  -0.125472   0.501887   x
            xxxxxxxxxxxxxxxxxxxxxxxxxxxxxxxxxxxxxxxxxxxxxxxxxxxxxxxxxxxxxxxxx


------------------------------------------------------------------------ <-- SCF
SCF loop      Energy           Fermi           Energy gain       Timer   <-- SCF
                               energy          per atom          (sec)   <-- SCF
------------------------------------------------------------------------ <-- SCF
Initial  -3.14343626E+004  0.00000000E+000                      1993.27  <-- SCF
      1  -3.14356150E+004  3.27734389E+000   3.91369155E-002    2062.11  <-- SCF
      2  -3.14358169E+004  3.27723690E+000   6.31013994E-003    2138.13  <-- SCF
      3  -3.14358189E+004  3.27887392E+000   6.05335104E-005    2208.71  <-- SCF
      4  -3.14358204E+004  3.28047187E+000   4.68154049E-005    2281.30  <-- SCF
      5  -3.14358206E+004  3.28093595E+000   5.89007462E-006    2362.77  <-- SCF
      6  -3.14358206E+004  3.28144296E+000   1.33916632E-006    2433.78  <-- SCF
      7  -3.14358206E+004  3.28177711E+000  -5.25871260E-008    2502.41  <-- SCF
      8  -3.14358206E+004  3.28207835E+000  -1.03099042E-007    2562.18  <-- SCF
      9  -3.14358206E+004  3.28219072E+000  -1.45517969E-008    2622.00  <-- SCF
     10  -3.14358206E+004  3.28223734E+000   1.25811887E-009    2675.34  <-- SCF
     11  -3.14358206E+004  3.28224240E+000   8.99264004E-010    2728.94  <-- SCF
------------------------------------------------------------------------ <-- SCF
 
Final energy, E             =  -31435.81513025     eV
Final free energy (E-TS)    =  -31435.82058931     eV
(energies not corrected for finite basis set)
 
NB est. 0K energy (E-0.5TS)      =  -31435.81785978     eV
 

 ******************************** Constrained Forces ********************************
 *                                                                                  *
 *                           Cartesian components (eV/A)                            *
 * -------------------------------------------------------------------------------- *
 *                         x                    y                    z              *
 *                                                                                  *
 * P               1     -0.00000(cons'd)      0.00000(cons'd)      0.01522         *
 * P               2      0.00000(cons'd)      0.00000(cons'd)      0.03749         *
 * P               3      0.00000(cons'd)      0.00000(cons'd)     -0.06415         *
 * P               4      0.00000(cons'd)      0.00000(cons'd)      0.06026         *
 * P               5     -0.00000(cons'd)      0.00000(cons'd)      0.01521         *
 * P               6     -0.00000(cons'd)      0.00000(cons'd)     -0.01821         *
 * P               7      0.00000(cons'd)      0.00000(cons'd)      0.01671         *
 * P               8      0.00000(cons'd)     -0.00000(cons'd)     -0.01569         *
 * P               9     -0.00000(cons'd)     -0.00000(cons'd)      0.01671         *
 * P              10      0.00000(cons'd)      0.00000(cons'd)      0.06027         *
 * P              11      0.00000(cons'd)      0.00000(cons'd)     -0.03526         *
 * P              12     -0.00000(cons'd)      0.00000(cons'd)     -0.01821         *
 * P              13      0.00000(cons'd)      0.00000(cons'd)      0.03749         *
 * P              14      0.00000(cons'd)      0.00000(cons'd)     -0.06414         *
 * P              15     -0.00000(cons'd)     -0.00000(cons'd)     -0.01569         *
 * P              16      0.00000(cons'd)     -0.00000(cons'd)     -0.03526         *
 * In              1      0.00000(cons'd)     -0.00000(cons'd)     -0.01742         *
 * In              2      0.00000(cons'd)      0.00000(cons'd)      0.01037         *
 * In              3      0.00000(cons'd)      0.00000(cons'd)     -0.00786         *
 * In              4      0.00000(cons'd)      0.00000(cons'd)      0.00904         *
 * In              5      0.00000(cons'd)      0.00000(cons'd)     -0.00875         *
 * In              6      0.00000(cons'd)      0.00000(cons'd)     -0.00216         *
 * In              7      0.00000(cons'd)      0.00000(cons'd)      0.01703         *
 * In              8      0.00000(cons'd)      0.00000(cons'd)      0.00339         *
 * In              9      0.00000(cons'd)     -0.00000(cons'd)      0.00339         *
 * In             10      0.00000(cons'd)      0.00000(cons'd)      0.01037         *
 * In             11      0.00000(cons'd)      0.00000(cons'd)     -0.01742         *
 * In             12     -0.00000(cons'd)      0.00000(cons'd)      0.00904         *
 * In             13      0.00000(cons'd)      0.00000(cons'd)      0.01704         *
 * In             14      0.00000(cons'd)      0.00000(cons'd)     -0.00876         *
 * In             15      0.00000(cons'd)      0.00000(cons'd)     -0.00215         *
 * In             16      0.00000(cons'd)      0.00000(cons'd)     -0.00786         *
 *                                                                                  *
 ************************************************************************************
  
 +------------+-------------+-------------+-----------------+ <-- min LBFGS
 |    Step    |   lambda    |   F.delta'  |    enthalpy     | <-- min LBFGS
 +------------+-------------+-------------+-----------------+ <-- min LBFGS
 |  previous  |    0.000000 |    0.134508 |   -31435.817440 | <-- min LBFGS
 | trial step |    1.000000 |   -0.023475 |   -31435.820589 | <-- min LBFGS
 +------------+-------------+-------------+-----------------+ <-- min LBFGS
  
 LBFGS: finished iteration     1 with enthalpy= -3.14358206E+004 eV
  
 +-----------+-----------------+-----------------+------------+-----+ <-- LBFGS
 | Parameter |      value      |    tolerance    |    units   | OK? | <-- LBFGS
 +-----------+-----------------+-----------------+------------+-----+ <-- LBFGS
 |  dE/ion   |   9.842091E-005 |   2.000000E-005 |         eV | No  | <-- LBFGS
 |  |F|max   |   6.414653E-002 |   1.000000E-003 |       eV/A | No  | <-- LBFGS
 |  |dR|max  |   1.038216E-002 |   1.000000E-003 |          A | No  | <-- LBFGS
 +-----------+-----------------+-----------------+------------+-----+ <-- LBFGS
  

================================================================================
 Starting LBFGS iteration          2 ...
================================================================================
  
 +------------+-------------+-------------+-----------------+ <-- min LBFGS
 |    Step    |   lambda    |   F.delta'  |    enthalpy     | <-- min LBFGS
 +------------+-------------+-------------+-----------------+ <-- min LBFGS
 |  previous  |    0.000000 |    0.079038 |   -31435.820589 | <-- min LBFGS
 +------------+-------------+-------------+-----------------+ <-- min LBFGS
  

--------------------------------------------------------------------------------
 LBFGS: starting iteration         2 with trial guess (lambda=  1.000000)
--------------------------------------------------------------------------------

                           -------------------------------
                                     Cell Contents
                           -------------------------------

            xxxxxxxxxxxxxxxxxxxxxxxxxxxxxxxxxxxxxxxxxxxxxxxxxxxxxxxxxxxxxxxxx
            x  Element         Atom        Fractional coordinates of atoms  x
            x                 Number           u          v          w      x
            x---------------------------------------------------------------x
            x  P                 1         0.750000  -0.156890   0.627559   x
            x  P                 2         0.750000   0.279346   0.882615   x
            x  P                 3         0.250000   0.562596   0.749618   x
            x  P                 4         0.750000  -0.031345   0.125378   x
            x  P                 5         0.750000   0.343110   0.627560   x
            x  P                 6         0.250000   0.625138   0.499447   x
            x  P                 7         0.750000   0.406111   0.375555   x
            x  P                 8         0.250000   0.688140   0.247442   x
            x  P                 9         0.750000  -0.093889   0.375555   x
            x  P                10         0.750000   0.468656   0.125378   x
            x  P                11         0.250000   0.751889  -0.007556   x
            x  P                12         0.250000   0.125138   0.499447   x
            x  P                13         0.750000  -0.220654   0.882615   x
            x  P                14         0.250000   0.062595   0.749618   x
            x  P                15         0.250000   0.188140   0.247442   x
            x  P                16         0.250000   0.251889  -0.007556   x
            x  In                1         0.500000   0.032295   0.870818   x
            x  In                2         0.500000   0.593981   0.624074   x
            x  In                3         0.000000   0.374545   0.501821   x
            x  In                4         0.500000   0.656712   0.373154   x
            x  In                5         0.000000   0.437274   0.250904   x
            x  In                6         0.500000   0.720281   0.118875   x
            x  In                7         0.000000   0.498955   0.004180   x
            x  In                8         0.000000   0.310972   0.756114   x
            x  In                9         0.000000  -0.189028   0.756114   x
            x  In               10         0.500000   0.093981   0.624074   x
            x  In               11         0.500000   0.532295   0.870818   x
            x  In               12         0.500000   0.156711   0.373154   x
            x  In               13         0.000000  -0.001045   0.004180   x
            x  In               14         0.000000  -0.062726   0.250904   x
            x  In               15         0.500000   0.220281   0.118875   x
            x  In               16         0.000000  -0.125455   0.501821   x
            xxxxxxxxxxxxxxxxxxxxxxxxxxxxxxxxxxxxxxxxxxxxxxxxxxxxxxxxxxxxxxxxx


------------------------------------------------------------------------ <-- SCF
SCF loop      Energy           Fermi           Energy gain       Timer   <-- SCF
                               energy          per atom          (sec)   <-- SCF
------------------------------------------------------------------------ <-- SCF
Initial  -3.14357876E+004  0.00000000E+000                      2776.34  <-- SCF
      1  -3.14358199E+004  3.28453966E+000   1.00804323E-003    2845.88  <-- SCF
      2  -3.14358225E+004  3.28453696E+000   8.09804360E-005    2929.53  <-- SCF
      3  -3.14358225E+004  3.28418384E+000   8.11827933E-008    2998.50  <-- SCF
      4  -3.14358225E+004  3.28379142E+000   2.82142293E-007    3071.58  <-- SCF
      5  -3.14358225E+004  3.28361280E+000   8.84352966E-008    3128.42  <-- SCF
      6  -3.14358225E+004  3.28350096E+000   8.42206853E-009    3181.93  <-- SCF
      7  -3.14358225E+004  3.28341962E+000  -2.54233980E-009    3233.40  <-- SCF
------------------------------------------------------------------------ <-- SCF
 
Final energy, E             =  -31435.81716602     eV
Final free energy (E-TS)    =  -31435.82247949     eV
(energies not corrected for finite basis set)
 
NB est. 0K energy (E-0.5TS)      =  -31435.81982276     eV
 

 ******************************** Constrained Forces ********************************
 *                                                                                  *
 *                           Cartesian components (eV/A)                            *
 * -------------------------------------------------------------------------------- *
 *                         x                    y                    z              *
 *                                                                                  *
 * P               1      0.00000(cons'd)      0.00000(cons'd)      0.00263         *
 * P               2      0.00000(cons'd)      0.00000(cons'd)      0.02217         *
 * P               3      0.00000(cons'd)      0.00000(cons'd)     -0.02598         *
 * P               4      0.00000(cons'd)      0.00000(cons'd)      0.02833         *
 * P               5      0.00000(cons'd)      0.00000(cons'd)      0.00263         *
 * P               6      0.00000(cons'd)      0.00000(cons'd)     -0.01048         *
 * P               7      0.00000(cons'd)      0.00000(cons'd)      0.00944         *
 * P               8     -0.00000(cons'd)      0.00000(cons'd)     -0.00413         *
 * P               9      0.00000(cons'd)     -0.00000(cons'd)      0.00943         *
 * P              10      0.00000(cons'd)      0.00000(cons'd)      0.02833         *
 * P              11     -0.00000(cons'd)      0.00000(cons'd)     -0.02319         *
 * P              12      0.00000(cons'd)      0.00000(cons'd)     -0.01048         *
 * P              13     -0.00000(cons'd)      0.00000(cons'd)      0.02217         *
 * P              14      0.00000(cons'd)     -0.00000(cons'd)     -0.02599         *
 * P              15      0.00000(cons'd)     -0.00000(cons'd)     -0.00413         *
 * P              16      0.00000(cons'd)     -0.00000(cons'd)     -0.02319         *
 * In              1      0.00000(cons'd)      0.00000(cons'd)     -0.01578         *
 * In              2      0.00000(cons'd)      0.00000(cons'd)     -0.00733         *
 * In              3      0.00000(cons'd)      0.00000(cons'd)      0.00741         *
 * In              4      0.00000(cons'd)      0.00000(cons'd)     -0.00665         *
 * In              5      0.00000(cons'd)      0.00000(cons'd)      0.00721         *
 * In              6      0.00000(cons'd)      0.00000(cons'd)     -0.00635         *
 * In              7      0.00000(cons'd)      0.00000(cons'd)      0.01435         *
 * In              8      0.00000(cons'd)      0.00000(cons'd)      0.00837         *
 * In              9      0.00000(cons'd)      0.00000(cons'd)      0.00837         *
 * In             10      0.00000(cons'd)      0.00000(cons'd)     -0.00733         *
 * In             11      0.00000(cons'd)      0.00000(cons'd)     -0.01579         *
 * In             12      0.00000(cons'd)      0.00000(cons'd)     -0.00665         *
 * In             13      0.00000(cons'd)      0.00000(cons'd)      0.01434         *
 * In             14      0.00000(cons'd)      0.00000(cons'd)      0.00721         *
 * In             15      0.00000(cons'd)      0.00000(cons'd)     -0.00636         *
 * In             16     -0.00000(cons'd)      0.00000(cons'd)      0.00741         *
 *                                                                                  *
 ************************************************************************************
  
 +------------+-------------+-------------+-----------------+ <-- min LBFGS
 |    Step    |   lambda    |   F.delta'  |    enthalpy     | <-- min LBFGS
 +------------+-------------+-------------+-----------------+ <-- min LBFGS
 |  previous  |    0.000000 |    0.079038 |   -31435.820589 | <-- min LBFGS
 | trial step |    1.000000 |    0.043147 |   -31435.822479 | <-- min LBFGS
 +------------+-------------+-------------+-----------------+ <-- min LBFGS
  

--------------------------------------------------------------------------------
 LBFGS: improving iteration         2 with line minimization (lambda=  2.202151)
--------------------------------------------------------------------------------

                           -------------------------------
                                     Cell Contents
                           -------------------------------

            xxxxxxxxxxxxxxxxxxxxxxxxxxxxxxxxxxxxxxxxxxxxxxxxxxxxxxxxxxxxxxxxx
            x  Element         Atom        Fractional coordinates of atoms  x
            x                 Number           u          v          w      x
            x---------------------------------------------------------------x
            x  P                 1         0.750000  -0.156902   0.627608   x
            x  P                 2         0.750000   0.279299   0.882803   x
            x  P                 3         0.250000   0.562711   0.749157   x
            x  P                 4         0.750000  -0.031455   0.125820   x
            x  P                 5         0.750000   0.343098   0.627608   x
            x  P                 6         0.250000   0.625162   0.499351   x
            x  P                 7         0.750000   0.406089   0.375645   x
            x  P                 8         0.250000   0.688152   0.247392   x
            x  P                 9         0.750000  -0.093911   0.375645   x
            x  P                10         0.750000   0.468545   0.125820   x
            x  P                11         0.250000   0.751928  -0.007713   x
            x  P                12         0.250000   0.125162   0.499351   x
            x  P                13         0.750000  -0.220701   0.882803   x
            x  P                14         0.250000   0.062711   0.749157   x
            x  P                15         0.250000   0.188152   0.247392   x
            x  P                16         0.250000   0.251928  -0.007713   x
            x  In                1         0.500000   0.032398   0.870409   x
            x  In                2         0.500000   0.594008   0.623969   x
            x  In                3         0.000000   0.374565   0.501742   x
            x  In                4         0.500000   0.656693   0.373229   x
            x  In                5         0.000000   0.437248   0.251008   x
            x  In                6         0.500000   0.720286   0.118857   x
            x  In                7         0.000000   0.498853   0.004590   x
            x  In                8         0.000000   0.310967   0.756133   x
            x  In                9         0.000000  -0.189033   0.756133   x
            x  In               10         0.500000   0.094008   0.623970   x
            x  In               11         0.500000   0.532398   0.870409   x
            x  In               12         0.500000   0.156693   0.373229   x
            x  In               13         0.000000  -0.001148   0.004590   x
            x  In               14         0.000000  -0.062752   0.251008   x
            x  In               15         0.500000   0.220286   0.118857   x
            x  In               16         0.000000  -0.125435   0.501742   x
            xxxxxxxxxxxxxxxxxxxxxxxxxxxxxxxxxxxxxxxxxxxxxxxxxxxxxxxxxxxxxxxxx


------------------------------------------------------------------------ <-- SCF
SCF loop      Energy           Fermi           Energy gain       Timer   <-- SCF
                               energy          per atom          (sec)   <-- SCF
------------------------------------------------------------------------ <-- SCF
Initial  -3.14357777E+004  0.00000000E+000                      3282.64  <-- SCF
      1  -3.14358196E+004  3.28611296E+000   1.30808380E-003    3352.20  <-- SCF
      2  -3.14358233E+004  3.28610907E+000   1.16425417E-004    3428.63  <-- SCF
      3  -3.14358233E+004  3.28567546E+000   9.46149089E-008    3495.00  <-- SCF
      4  -3.14358233E+004  3.28519526E+000   3.94033086E-007    3565.95  <-- SCF
      5  -3.14358233E+004  3.28497702E+000   1.23831612E-007    3623.05  <-- SCF
      6  -3.14358233E+004  3.28483649E+000   1.04019575E-008    3680.39  <-- SCF
      7  -3.14358233E+004  3.28473717E+000  -4.48877943E-009    3732.80  <-- SCF
      8  -3.14358233E+004  3.28464771E+000  -2.83448942E-009    3788.37  <-- SCF
------------------------------------------------------------------------ <-- SCF
 
Final energy, E             =  -31435.81819738     eV
Final free energy (E-TS)    =  -31435.82334655     eV
(energies not corrected for finite basis set)
 
NB est. 0K energy (E-0.5TS)      =  -31435.82077197     eV
 

 ******************************** Constrained Forces ********************************
 *                                                                                  *
 *                           Cartesian components (eV/A)                            *
 * -------------------------------------------------------------------------------- *
 *                         x                    y                    z              *
 *                                                                                  *
 * P               1     -0.00000(cons'd)      0.00000(cons'd)     -0.01157         *
 * P               2      0.00000(cons'd)      0.00000(cons'd)      0.00409         *
 * P               3      0.00000(cons'd)     -0.00000(cons'd)      0.01862         *
 * P               4      0.00000(cons'd)      0.00000(cons'd)     -0.00977         *
 * P               5      0.00000(cons'd)     -0.00000(cons'd)     -0.01156         *
 * P               6      0.00000(cons'd)      0.00000(cons'd)     -0.00122         *
 * P               7      0.00000(cons'd)     -0.00000(cons'd)      0.00120         *
 * P               8     -0.00000(cons'd)     -0.00000(cons'd)      0.00920         *
 * P               9      0.00000(cons'd)      0.00000(cons'd)      0.00119         *
 * P              10      0.00000(cons'd)      0.00000(cons'd)     -0.00978         *
 * P              11      0.00000(cons'd)      0.00000(cons'd)     -0.00908         *
 * P              12      0.00000(cons'd)      0.00000(cons'd)     -0.00122         *
 * P              13      0.00000(cons'd)      0.00000(cons'd)      0.00409         *
 * P              14      0.00000(cons'd)     -0.00000(cons'd)      0.01861         *
 * P              15      0.00000(cons'd)     -0.00000(cons'd)      0.00920         *
 * P              16      0.00000(cons'd)      0.00000(cons'd)     -0.00907         *
 * In              1     -0.00000(cons'd)      0.00000(cons'd)     -0.01583         *
 * In              2      0.00000(cons'd)      0.00000(cons'd)     -0.02906         *
 * In              3      0.00000(cons'd)      0.00000(cons'd)      0.02520         *
 * In              4      0.00000(cons'd)      0.00000(cons'd)     -0.02486         *
 * In              5     -0.00000(cons'd)      0.00000(cons'd)      0.02695         *
 * In              6      0.00000(cons'd)      0.00000(cons'd)     -0.01151         *
 * In              7      0.00000(cons'd)      0.00000(cons'd)      0.01311         *
 * In              8      0.00000(cons'd)      0.00000(cons'd)      0.01455         *
 * In              9      0.00000(cons'd)      0.00000(cons'd)      0.01456         *
 * In             10      0.00000(cons'd)      0.00000(cons'd)     -0.02906         *
 * In             11      0.00000(cons'd)      0.00000(cons'd)     -0.01585         *
 * In             12      0.00000(cons'd)      0.00000(cons'd)     -0.02486         *
 * In             13      0.00000(cons'd)      0.00000(cons'd)      0.01309         *
 * In             14      0.00000(cons'd)      0.00000(cons'd)      0.02695         *
 * In             15      0.00000(cons'd)      0.00000(cons'd)     -0.01153         *
 * In             16      0.00000(cons'd)      0.00000(cons'd)      0.02521         *
 *                                                                                  *
 ************************************************************************************
  
 +------------+-------------+-------------+-----------------+ <-- min LBFGS
 |    Step    |   lambda    |   F.delta'  |    enthalpy     | <-- min LBFGS
 +------------+-------------+-------------+-----------------+ <-- min LBFGS
 |  previous  |    0.000000 |    0.079038 |   -31435.820589 | <-- min LBFGS
 | trial step |    1.000000 |    0.043147 |   -31435.822479 | <-- min LBFGS
 |  line step |    2.202151 |    0.002548 |   -31435.823347 | <-- min LBFGS
 +------------+-------------+-------------+-----------------+ <-- min LBFGS
  
 LBFGS: finished iteration     2 with enthalpy= -3.14358233E+004 eV
  
 +-----------+-----------------+-----------------+------------+-----+ <-- LBFGS
 | Parameter |      value      |    tolerance    |    units   | OK? | <-- LBFGS
 +-----------+-----------------+-----------------+------------+-----+ <-- LBFGS
 |  dE/ion   |   8.616388E-005 |   2.000000E-005 |         eV | No  | <-- LBFGS
 |  |F|max   |   2.905595E-002 |   1.000000E-003 |       eV/A | No  | <-- LBFGS
 |  |dR|max  |   1.411523E-002 |   1.000000E-003 |          A | No  | <-- LBFGS
 +-----------+-----------------+-----------------+------------+-----+ <-- LBFGS
  

================================================================================
 Starting LBFGS iteration          3 ...
================================================================================
  
 +------------+-------------+-------------+-----------------+ <-- min LBFGS
 |    Step    |   lambda    |   F.delta'  |    enthalpy     | <-- min LBFGS
 +------------+-------------+-------------+-----------------+ <-- min LBFGS
 |  previous  |    0.000000 |    0.036618 |   -31435.823347 | <-- min LBFGS
 +------------+-------------+-------------+-----------------+ <-- min LBFGS
  

--------------------------------------------------------------------------------
 LBFGS: starting iteration         3 with trial guess (lambda=  1.000000)
--------------------------------------------------------------------------------

                           -------------------------------
                                     Cell Contents
                           -------------------------------

            xxxxxxxxxxxxxxxxxxxxxxxxxxxxxxxxxxxxxxxxxxxxxxxxxxxxxxxxxxxxxxxxx
            x  Element         Atom        Fractional coordinates of atoms  x
            x                 Number           u          v          w      x
            x---------------------------------------------------------------x
            x  P                 1         0.750000  -0.156876   0.627504   x
            x  P                 2         0.750000   0.279267   0.882931   x
            x  P                 3         0.250000   0.562753   0.748987   x
            x  P                 4         0.750000  -0.031511   0.126043   x
            x  P                 5         0.750000   0.343124   0.627504   x
            x  P                 6         0.250000   0.625183   0.499268   x
            x  P                 7         0.750000   0.406069   0.375725   x
            x  P                 8         0.250000   0.688129   0.247483   x
            x  P                 9         0.750000  -0.093931   0.375725   x
            x  P                10         0.750000   0.468489   0.126043   x
            x  P                11         0.250000   0.751968  -0.007871   x
            x  P                12         0.250000   0.125183   0.499268   x
            x  P                13         0.750000  -0.220733   0.882931   x
            x  P                14         0.250000   0.062753   0.748987   x
            x  P                15         0.250000   0.188129   0.247483   x
            x  P                16         0.250000   0.251968  -0.007871   x
            x  In                1         0.500000   0.032482   0.870070   x
            x  In                2         0.500000   0.594084   0.623663   x
            x  In                3         0.000000   0.374537   0.501852   x
            x  In                4         0.500000   0.656720   0.373119   x
            x  In                5        -0.000000   0.437174   0.251306   x
            x  In                6         0.500000   0.720307   0.118772   x
            x  In                7         0.000000   0.498775   0.004899   x
            x  In                8         0.000000   0.310937   0.756251   x
            x  In                9         0.000000  -0.189063   0.756251   x
            x  In               10         0.500000   0.094084   0.623663   x
            x  In               11         0.500000   0.532483   0.870070   x
            x  In               12         0.500000   0.156720   0.373119   x
            x  In               13         0.000000  -0.001225   0.004899   x
            x  In               14         0.000000  -0.062826   0.251306   x
            x  In               15         0.500000   0.220307   0.118772   x
            x  In               16         0.000000  -0.125463   0.501852   x
            xxxxxxxxxxxxxxxxxxxxxxxxxxxxxxxxxxxxxxxxxxxxxxxxxxxxxxxxxxxxxxxxx


------------------------------------------------------------------------ <-- SCF
SCF loop      Energy           Fermi           Energy gain       Timer   <-- SCF
                               energy          per atom          (sec)   <-- SCF
------------------------------------------------------------------------ <-- SCF
Initial  -3.14357837E+004  0.00000000E+000                      3836.86  <-- SCF
      1  -3.14358196E+004  3.28766806E+000   1.12337251E-003    3904.16  <-- SCF
      2  -3.14358239E+004  3.28766650E+000   1.35387926E-004    3986.78  <-- SCF
      3  -3.14358240E+004  3.28761429E+000   1.70663003E-006    4055.94  <-- SCF
      4  -3.14358240E+004  3.28752278E+000   7.04181526E-007    4125.48  <-- SCF
      5  -3.14358240E+004  3.28749991E+000   8.42709560E-008    4179.03  <-- SCF
      6  -3.14358240E+004  3.28749502E+000   1.29947612E-008    4231.68  <-- SCF
      7  -3.14358240E+004  3.28749027E+000   2.04582078E-009    4280.49  <-- SCF
      8  -3.14358240E+004  3.28748503E+000   3.44933774E-010    4329.07  <-- SCF
------------------------------------------------------------------------ <-- SCF
 
Final energy, E             =  -31435.81911556     eV
Final free energy (E-TS)    =  -31435.82402883     eV
(energies not corrected for finite basis set)
 
NB est. 0K energy (E-0.5TS)      =  -31435.82157219     eV
 

 ******************************** Constrained Forces ********************************
 *                                                                                  *
 *                           Cartesian components (eV/A)                            *
 * -------------------------------------------------------------------------------- *
 *                         x                    y                    z              *
 *                                                                                  *
 * P               1      0.00000(cons'd)      0.00000(cons'd)      0.01385         *
 * P               2      0.00000(cons'd)      0.00000(cons'd)     -0.00424         *
 * P               3      0.00000(cons'd)      0.00000(cons'd)      0.00517         *
 * P               4      0.00000(cons'd)      0.00000(cons'd)     -0.00752         *
 * P               5      0.00000(cons'd)     -0.00000(cons'd)      0.01385         *
 * P               6      0.00000(cons'd)      0.00000(cons'd)     -0.01308         *
 * P               7      0.00000(cons'd)      0.00000(cons'd)      0.01388         *
 * P               8      0.00000(cons'd)      0.00000(cons'd)     -0.01135         *
 * P               9      0.00000(cons'd)      0.00000(cons'd)      0.01389         *
 * P              10      0.00000(cons'd)      0.00000(cons'd)     -0.00751         *
 * P              11     -0.00000(cons'd)      0.00000(cons'd)      0.00253         *
 * P              12      0.00000(cons'd)      0.00000(cons'd)     -0.01308         *
 * P              13     -0.00000(cons'd)      0.00000(cons'd)     -0.00424         *
 * P              14      0.00000(cons'd)     -0.00000(cons'd)      0.00518         *
 * P              15     -0.00000(cons'd)     -0.00000(cons'd)     -0.01135         *
 * P              16     -0.00000(cons'd)     -0.00000(cons'd)      0.00253         *
 * In              1      0.00000(cons'd)      0.00000(cons'd)     -0.00153         *
 * In              2      0.00000(cons'd)      0.00000(cons'd)     -0.00766         *
 * In              3      0.00000(cons'd)      0.00000(cons'd)      0.01145         *
 * In              4      0.00000(cons'd)      0.00000(cons'd)     -0.01259         *
 * In              5      0.00000(cons'd)      0.00000(cons'd)      0.00883         *
 * In              6      0.00000(cons'd)      0.00000(cons'd)     -0.00704         *
 * In              7      0.00000(cons'd)      0.00000(cons'd)      0.00487         *
 * In              8      0.00000(cons'd)      0.00000(cons'd)      0.00442         *
 * In              9      0.00000(cons'd)      0.00000(cons'd)      0.00443         *
 * In             10      0.00000(cons'd)      0.00000(cons'd)     -0.00766         *
 * In             11      0.00000(cons'd)      0.00000(cons'd)     -0.00154         *
 * In             12      0.00000(cons'd)      0.00000(cons'd)     -0.01259         *
 * In             13      0.00000(cons'd)      0.00000(cons'd)      0.00487         *
 * In             14      0.00000(cons'd)      0.00000(cons'd)      0.00883         *
 * In             15      0.00000(cons'd)      0.00000(cons'd)     -0.00705         *
 * In             16      0.00000(cons'd)      0.00000(cons'd)      0.01145         *
 *                                                                                  *
 ************************************************************************************
  
 +------------+-------------+-------------+-----------------+ <-- min LBFGS
 |    Step    |   lambda    |   F.delta'  |    enthalpy     | <-- min LBFGS
 +------------+-------------+-------------+-----------------+ <-- min LBFGS
 |  previous  |    0.000000 |    0.036618 |   -31435.823347 | <-- min LBFGS
 | trial step |    1.000000 |    0.007675 |   -31435.824029 | <-- min LBFGS
 +------------+-------------+-------------+-----------------+ <-- min LBFGS
  
 LBFGS: finished iteration     3 with enthalpy= -3.14358240E+004 eV
  
 +-----------+-----------------+-----------------+------------+-----+ <-- LBFGS
 | Parameter |      value      |    tolerance    |    units   | OK? | <-- LBFGS
 +-----------+-----------------+-----------------+------------+-----+ <-- LBFGS
 |  dE/ion   |   2.132122E-005 |   2.000000E-005 |         eV | No  | <-- LBFGS
 |  |F|max   |   1.388662E-002 |   1.000000E-003 |       eV/A | No  | <-- LBFGS
[...]
 * In             13      0.00000(cons'd)      0.00000(cons'd)      0.00001         *
 * In             14      0.00000(cons'd)      0.00000(cons'd)      0.00077         *
 * In             15      0.00000(cons'd)      0.00000(cons'd)     -0.00022         *
 * In             16      0.00000(cons'd)      0.00000(cons'd)     -0.00023         *
 *                                                                                  *
 ************************************************************************************

 Pseudo atomic calculation performed for P 3s2 3p3

 Converged in 23 iterations to a total energy of -208.0292 eV

 Pseudo atomic calculation performed for In 4d10 5s2 5p1

 Converged in 42 iterations to a total energy of -1747.4501 eV
Charge spilling parameter for spin component 1 = 0.18%

            Orbital Populations       
     Ion    Atom   Orbital             Charge
  -------------------------------------------
      P     1      S                    1.740
      P     1      Px                   1.310
      P     1      Py                   1.304
      P     1      Pz                   1.312
      P     2      S                    1.790
      P     2      Px                   1.296
      P     2      Py                   1.194
      P     2      Pz                   1.366
      P     3      S                    1.738
      P     3      Px                   1.317
      P     3      Py                   1.332
      P     3      Pz                   1.283
      P     4      S                    1.738
      P     4      Px                   1.317
      P     4      Py                   1.332
      P     4      Pz                   1.283
      P     5      S                    1.740
      P     5      Px                   1.310
      P     5      Py                   1.304
      P     5      Pz                   1.312
      P     6      S                    1.737
      P     6      Px                   1.314
      P     6      Py                   1.315
      P     6      Pz                   1.307
      P     7      S                    1.737
      P     7      Px                   1.314
      P     7      Py                   1.315
      P     7      Pz                   1.307
      P     8      S                    1.740
      P     8      Px                   1.310
      P     8      Py                   1.304
      P     8      Pz                   1.312
      P     9      S                    1.737
      P     9      Px                   1.314
      P     9      Py                   1.315
      P     9      Pz                   1.307
      P    10      S                    1.738
      P    10      Px                   1.317
      P    10      Py                   1.332
      P    10      Pz                   1.283
      P    11      S                    1.790
      P    11      Px                   1.296
      P    11      Py                   1.194
      P    11      Pz                   1.366
      P    12      S                    1.737
      P    12      Px                   1.314
      P    12      Py                   1.315
      P    12      Pz                   1.307
      P    13      S                    1.790
      P    13      Px                   1.296
      P    13      Py                   1.194
      P    13      Pz                   1.366
      P    14      S                    1.738
      P    14      Px                   1.317
      P    14      Py                   1.332
      P    14      Pz                   1.283
      P    15      S                    1.740
      P    15      Px                   1.310
      P    15      Py                   1.304
      P    15      Pz                   1.312
      P    16      S                    1.790
      P    16      Px                   1.296
      P    16      Py                   1.194
      P    16      Pz                   1.366
     In     1      Dzz                  1.998
     In     1      Dzy                  1.999
     In     1      Dzx                  1.997
     In     1      Dxx-yy               1.999
     In     1      Dxy                  1.997
     In     1      S                    1.388
     In     1      Px                   0.449
     In     1      Py                   0.494
     In     1      Pz                   0.391
     In     1      S                   -0.421
     In     2      Dzz                  1.998
     In     2      Dzy                  1.999
     In     2      Dzx                  1.997
     In     2      Dxx-yy               1.999
     In     2      Dxy                  1.997
     In     2      S                    1.435
     In     2      Px                   0.479
     In     2      Py                   0.488
     In     2      Pz                   0.474
     In     2      S                   -0.531
     In     3      Dzz                  1.998
     In     3      Dzy                  1.999
     In     3      Dzx                  1.997
     In     3      Dxx-yy               1.999
     In     3      Dxy                  1.997
     In     3      S                    1.428
     In     3      Px                   0.482
     In     3      Py                   0.481
     In     3      Pz                   0.482
     In     3      S                   -0.526
     In     4      Dzz                  1.998
     In     4      Dzy                  1.999
     In     4      Dzx                  1.997
     In     4      Dxx-yy               1.999
     In     4      Dxy                  1.997
     In     4      S                    1.428
     In     4      Px                   0.482
     In     4      Py                   0.480
     In     4      Pz                   0.482
     In     4      S                   -0.526
     In     5      Dzz                  1.998
     In     5      Dzy                  1.999
     In     5      Dzx                  1.997
     In     5      Dxx-yy               1.999
     In     5      Dxy                  1.997
     In     5      S                    1.435
     In     5      Px                   0.479
     In     5      Py                   0.488
     In     5      Pz                   0.474
     In     5      S                   -0.531
     In     6      Dzz                  1.998
     In     6      Dzy                  1.999
     In     6      Dzx                  1.997
     In     6      Dxx-yy               1.999
     In     6      Dxy                  1.997
     In     6      S                    1.433
     In     6      Px                   0.480
     In     6      Py                   0.468
     In     6      Pz                   0.496
     In     6      S                   -0.484
     In     7      Dzz                  1.998
     In     7      Dzy                  1.999
     In     7      Dzx                  1.997
     In     7      Dxx-yy               1.999
     In     7      Dxy                  1.997
     In     7      S                    1.388
     In     7      Px                   0.449
     In     7      Py                   0.494
     In     7      Pz                   0.391
     In     7      S                   -0.421
     In     8      Dzz                  1.998
     In     8      Dzy                  1.999
     In     8      Dzx                  1.997
     In     8      Dxx-yy               1.999
     In     8      Dxy                  1.997
     In     8      S                    1.433
     In     8      Px                   0.480
     In     8      Py                   0.468
     In     8      Pz                   0.496
     In     8      S                   -0.484
     In     9      Dzz                  1.998
     In     9      Dzy                  1.999
     In     9      Dzx                  1.997
     In     9      Dxx-yy               1.999
     In     9      Dxy                  1.997
     In     9      S                    1.433
     In     9      Px                   0.480
     In     9      Py                   0.468
     In     9      Pz                   0.496
     In     9      S                   -0.484
     In    10      Dzz                  1.998
     In    10      Dzy                  1.999
     In    10      Dzx                  1.997
     In    10      Dxx-yy               1.999
     In    10      Dxy                  1.997
     In    10      S                    1.435
     In    10      Px                   0.479
     In    10      Py                   0.488
     In    10      Pz                   0.474
     In    10      S                   -0.531
     In    11      Dzz                  1.998
     In    11      Dzy                  1.999
     In    11      Dzx                  1.997
     In    11      Dxx-yy               1.999
     In    11      Dxy                  1.997
     In    11      S                    1.388
     In    11      Px                   0.449
     In    11      Py                   0.494
     In    11      Pz                   0.391
     In    11      S                   -0.421
     In    12      Dzz                  1.998
     In    12      Dzy                  1.999
     In    12      Dzx                  1.997
     In    12      Dxx-yy               1.999
     In    12      Dxy                  1.997
     In    12      S                    1.428
     In    12      Px                   0.482
     In    12      Py                   0.480
     In    12      Pz                   0.482
     In    12      S                   -0.526
     In    13      Dzz                  1.998
     In    13      Dzy                  1.999
     In    13      Dzx                  1.997
     In    13      Dxx-yy               1.999
     In    13      Dxy                  1.997
     In    13      S                    1.388
     In    13      Px                   0.449
     In    13      Py                   0.494
     In    13      Pz                   0.391
     In    13      S                   -0.421
     In    14      Dzz                  1.998
     In    14      Dzy                  1.999
     In    14      Dzx                  1.997
     In    14      Dxx-yy               1.999
     In    14      Dxy                  1.997
     In    14      S                    1.435
     In    14      Px                   0.479
     In    14      Py                   0.488
     In    14      Pz                   0.474
     In    14      S                   -0.531
     In    15      Dzz                  1.998
     In    15      Dzy                  1.999
     In    15      Dzx                  1.997
     In    15      Dxx-yy               1.999
     In    15      Dxy                  1.997
     In    15      S                    1.433
     In    15      Px                   0.480
     In    15      Py                   0.468
     In    15      Pz                   0.496
     In    15      S                   -0.484
     In    16      Dzz                  1.998
     In    16      Dzy                  1.999
     In    16      Dzx                  1.997
     In    16      Dxx-yy               1.999
     In    16      Dxy                  1.997
     In    16      S                    1.428
     In    16      Px                   0.482
     In    16      Py                   0.481
     In    16      Pz                   0.482
     In    16      S                   -0.526
  -------------------------------------------
                           Total:     288.000
  -------------------------------------------

     Atomic Populations (Mulliken)
     -----------------------------
Species          Ion     s       p       d       f      Total   Charge (e)
==========================================================================
  P               1     1.740   3.926   0.000   0.000   5.666    -0.666
  P               2     1.790   3.856   0.000   0.000   5.647    -0.647
  P               3     1.738   3.932   0.000   0.000   5.669    -0.669
  P               4     1.738   3.932   0.000   0.000   5.669    -0.669
  P               5     1.740   3.926   0.000   0.000   5.666    -0.666
  P               6     1.737   3.936   0.000   0.000   5.673    -0.673
  P               7     1.737   3.936   0.000   0.000   5.673    -0.673
  P               8     1.740   3.926   0.000   0.000   5.666    -0.666
  P               9     1.737   3.936   0.000   0.000   5.673    -0.673
  P              10     1.738   3.932   0.000   0.000   5.669    -0.669
  P              11     1.790   3.857   0.000   0.000   5.647    -0.647
  P              12     1.737   3.936   0.000   0.000   5.673    -0.673
  P              13     1.790   3.856   0.000   0.000   5.647    -0.647
  P              14     1.738   3.932   0.000   0.000   5.669    -0.669
  P              15     1.740   3.926   0.000   0.000   5.666    -0.666
  P              16     1.790   3.857   0.000   0.000   5.647    -0.647
  In              1     0.968   1.334   9.991   0.000  12.293     0.707
  In              2     0.904   1.441   9.989   0.000  12.334     0.666
  In              3     0.902   1.444   9.990   0.000  12.336     0.664
  In              4     0.902   1.444   9.990   0.000  12.336     0.664
  In              5     0.904   1.441   9.989   0.000  12.334     0.666
  In              6     0.949   1.444   9.989   0.000  12.383     0.617
  In              7     0.968   1.334   9.991   0.000  12.293     0.707
  In              8     0.949   1.444   9.989   0.000  12.383     0.617
  In              9     0.949   1.444   9.989   0.000  12.383     0.617
  In             10     0.904   1.441   9.989   0.000  12.334     0.666
  In             11     0.968   1.334   9.991   0.000  12.293     0.707
  In             12     0.902   1.444   9.990   0.000  12.336     0.664
  In             13     0.968   1.334   9.991   0.000  12.293     0.707
  In             14     0.904   1.441   9.989   0.000  12.334     0.666
  In             15     0.949   1.444   9.989   0.000  12.383     0.617
  In             16     0.902   1.444   9.990   0.000  12.336     0.664
==========================================================================

                 Bond                   Population      Length (A)
======================================================================
              P 3  -- In 11                  0.71        2.50159
              P 14 -- In 1                   0.71        2.50159
              P 4  -- In 13                  0.71        2.50207
              P 10 -- In 7                   0.71        2.50207
              P 6  -- In 2                   0.62        2.54746
              P 12 -- In 10                  0.62        2.54746
              P 9  -- In 14                  0.62        2.54785
              P 7  -- In 5                   0.62        2.54785
              P 12 -- In 16                  0.62        2.55589
              P 6  -- In 3                   0.62        2.55589
              P 6  -- In 16                  0.62        2.55589
              P 12 -- In 3                   0.62        2.55589
              P 9  -- In 12                  0.62        2.55591
              P 7  -- In 4                   0.62        2.55591
              P 9  -- In 4                   0.62        2.55591
              P 7  -- In 12                  0.62        2.55591
              P 1  -- In 10                  0.63        2.55637
              P 5  -- In 2                   0.63        2.55637
              P 1  -- In 2                   0.63        2.55637
              P 5  -- In 10                  0.63        2.55637
              P 15 -- In 14                  0.63        2.55638
              P 8  -- In 5                   0.63        2.55638
              P 8  -- In 14                  0.63        2.55638
              P 15 -- In 5                   0.63        2.55638
              P 14 -- In 9                   0.56        2.55849
              P 3  -- In 9                   0.56        2.55849
              P 3  -- In 8                   0.56        2.55849
              P 14 -- In 8                   0.56        2.55849
              P 4  -- In 15                  0.56        2.55854
              P 10 -- In 6                   0.56        2.55854
              P 4  -- In 6                   0.56        2.55854
              P 10 -- In 15                  0.56        2.55854
              P 4  -- In 14                  0.60        2.56114
              P 10 -- In 5                   0.60        2.56114
              P 3  -- In 2                   0.59        2.56166
              P 14 -- In 10                  0.59        2.56166
              P 1  -- In 16                  0.61        2.56316
              P 5  -- In 3                   0.61        2.56316
              P 8  -- In 4                   0.61        2.56324
              P 15 -- In 12                  0.61        2.56324
              P 11 -- In 7                   0.68        2.56469
              P 16 -- In 13                  0.68        2.56469
              P 11 -- In 13                  0.68        2.56469
              P 16 -- In 7                   0.68        2.56469
              P 13 -- In 1                   0.68        2.56471
              P 2  -- In 11                  0.68        2.56471
              P 13 -- In 11                  0.68        2.56471
              P 2  -- In 1                   0.68        2.56471
              P 9  -- In 16                  0.60        2.57191
              P 7  -- In 3                   0.60        2.57191
              P 12 -- In 12                  0.60        2.57252
              P 6  -- In 4                   0.60        2.57252
              P 16 -- In 15                  0.62        2.57600
              P 11 -- In 6                   0.62        2.57600
              P 2  -- In 8                   0.62        2.57651
              P 13 -- In 9                   0.62        2.57651
              P 15 -- In 15                  0.54        2.60600
              P 8  -- In 6                   0.54        2.60600
              P 1  -- In 9                   0.54        2.60601
              P 5  -- In 8                   0.54        2.60601
======================================================================

 Hirshfeld supercell size:           3           2           1
Standard grid dimensions: 180 180 180
Fine grid dimensions:     180 180 180


     Hirshfeld Analysis
     ------------------
Species   Ion     Hirshfeld Charge (e)
======================================
  P        1                -0.24
  P        2                -0.26
  P        3                -0.23
  P        4                -0.23
  P        5                -0.24
  P        6                -0.24
  P        7                -0.24
  P        8                -0.24
  P        9                -0.24
  P       10                -0.23
  P       11                -0.26
  P       12                -0.24
  P       13                -0.26
  P       14                -0.23
  P       15                -0.24
  P       16                -0.26
  In       1                 0.27
  In       2                 0.24
  In       3                 0.24
  In       4                 0.24
  In       5                 0.24
  In       6                 0.22
  In       7                 0.27
  In       8                 0.22
  In       9                 0.22
  In      10                 0.24
  In      11                 0.27
  In      12                 0.24
  In      13                 0.27
  In      14                 0.24
  In      15                 0.22
  In      16                 0.24
======================================

 
 A BibTeX formatted list of references used in this run has been written to 
 StackingFaultStructs_110_1-10_9.bib
 
Initialisation time =     24.49 s
Calculation time    =   6093.49 s
Finalisation time   =     43.81 s
Total time          =   6161.80 s
Peak Memory Use     = 7133580 kB
 
Overall parallel efficiency rating: Poor (35%)
 
Data was distributed by:-
G-vector (2-way); efficiency rating: Poor (39%)
k-point (40-way); efficiency rating: Good (74%)
