 +-------------------------------------------------+
 |                                                 |
 |      CCC   AA    SSS  TTTTT  EEEEE  PPPP        |
 |     C     A  A  S       T    E      P   P       |
 |     C     AAAA   SS     T    EEE    PPPP        |
 |     C     A  A     S    T    E      P           |
 |      CCC  A  A  SSS     T    EEEEE  P           |
 |                                                 |
 +-------------------------------------------------+
 |                                                 |
 | Welcome to Academic Release CASTEP version 24.1 |
 | Ab Initio Total Energy Program                  |
 |                                                 |
 | Authors:                                        |
 | M. Segall, M. Probert, C. Pickard, P. Hasnip,   |
 | S. Clark, K. Refson, J. R. Yates,               |
 | A. Bartok-Partay, M. Payne                      |
 |                                                 |
 | Contributors:                                   |
 | P. Lindan, P. Haynes, J. White, V. Milman,      |
 | N. Govind, M. Gibson, P. Tulip, V. Cocula,      |
 | B. Montanari, D. Quigley, M. Glover,            |
 | L. Bernasconi, A. Perlov, M. Plummer,           |
 | E. McNellis, J. Meyer, J. Gale, D. Jochym       |
 | J. Aarons, B. Walker, R. Gillen, D. Jones       |
 | T. Green, I. J. Bush, C. J. Armstrong,          |
 | E. J. Higgins, E. L. Brown, M. S. McFly,        |
 | J. Wilkins, B-C. Shih, P. J. P. Byrne,          |
 | R. J. Maurer, J. C. Womack, J. Dziedzic,        |
 | L. LeBlanc, T. K. Stenczel, J. Kermode,         |
 | S. Sturniolo, B. Shi, B. Durham, M. Evans,      |
 | M. J. Smith, A. Tamerus, Z. Hawkhead,           |
 | V. Ravindran, T. Hollins, S. A. Joyce,          |
 | R. T. Strong, A. M. Reilly, S. J. Donaldson     |
 |                                                 |
 | Copyright (c) 2000 - 2023                       |
 |                                                 |
 |     Distributed under license from Cambridge    |
 |     Enterprise for academic use only.           |
 |                                                 |
 | Please cite                                     |
 |                                                 |
 |     "First principles methods using CASTEP"     |
 |                                                 |
 |         Zeitschrift fuer Kristallographie       |
 |           220(5-6) pp. 567-570 (2005)           |
 |                                                 |
 | S. J. Clark, M. D. Segall, C. J. Pickard,       |
 | P. J. Hasnip, M. J. Probert, K. Refson,         |
 | M. C. Payne                                     |
 |                                                 |
 |       in all publications arising from          |
 |              your use of CASTEP                 |
 |                                                 |
 +-------------------------------------------------+
 |                                                 |
 |              http://www.castep.org              |
 |                                                 |
 +-------------------------------------------------+



 Compiled for  GNU 11.2.0 on 04-04-2024 18:39:17
 from code version 6355fd106 Castep241_branch Thu Mar 7 17:56:19 2024 +0000
 Compiler: GNU Fortran 11.2.0; Optimisation: FAST
 Comms   : MPI VERSION : CRAY MPICH version 8.1.23.14 (ANL base 3.4a2)
 MATHLIBS: default (LAPACK version 3.10.1)
 FFT Lib : fftw3 version commercial-fftw-3.3.10-sse2-avx-avx2-avx2_128
 Fundamental constants values: CODATA 2018

 Run started: Tue, 29 Apr 2025 13:52:50 +0100

 Atomic calculation performed for P: 1s2 2s2 2p6 3s2 3p3

 Converged in 47 iterations to an ae energy of -9309.074 eV

   ============================================================                
   | Pseudopotential Report - Date of generation 29-04-2025   |                
   ------------------------------------------------------------                
   | Element: P Ionic charge:  5.00 Level of theory: RSCAN    |                
   | Atomic Solver: Koelling-Harmon                           |                
   |                                                          |                
   |               Reference Electronic Structure             |                
   |         Orbital         Occupation         Energy        |                
   |            3s              2.000           -0.535        |                
   |            3p              3.000           -0.209        |                
   |                                                          |                
   |                 Pseudopotential Definition               |                
   |        Beta     l      e      Rc     scheme   norm       |                
   |          1      0   -0.535   1.807     qc      0         |                
   |          2      0    0.250   1.807     qc      0         |                
   |          3      1   -0.209   1.807     qc      0         |                
   |          4      1    0.250   1.807     qc      0         |                
   |          5      2    0.000   1.807     qc      0         |                
   |          6      2    0.250   1.807     qc      0         |                
   |         loc     3    0.000   1.807     pn      0         |                
   |                                                          |                
   | Augmentation charge Rinner = 1.263                       |                
   | Partial core correction Rc = 1.263                       |                
   ------------------------------------------------------------                
   | "3|1.8|4|4|5|30:31:32"                                   |                
   ------------------------------------------------------------                
   |      Author: Chris J. Pickard, Cambridge University      |                
   ============================================================                
 Warning: otfg_output_psp cannot write out meta-GGA pseudopotentials presently.

 Atomic calculation performed for In:
 1s2 2s2 2p6 3s2 3p6 3d10 4s2 4p6 4d10 5s2 5p1

 Converged in 84 iterations to an ae energy of -160093.328 eV

   ============================================================                
   | Pseudopotential Report - Date of generation 29-04-2025   |                
   ------------------------------------------------------------                
   | Element: In Ionic charge: 13.00 Level of theory: RSCAN   |                
   | Atomic Solver: Koelling-Harmon                           |                
   |                                                          |                
   |               Reference Electronic Structure             |                
   |         Orbital         Occupation         Energy        |                
   |            4d             10.000           -0.711        |                
   |            5s              2.000           -0.313        |                
   |            5p              1.000           -0.095        |                
   |                                                          |                
   |                 Pseudopotential Definition               |                
   |        Beta     l      e      Rc     scheme   norm       |                
   |          1      0   -0.313   2.501     qc      0         |                
   |          2      0    0.250   2.501     qc      0         |                
   |          3      1   -0.095   2.501     qc      0         |                
   |          4      1    0.250   2.501     qc      0         |                
   |          5      2   -0.711   2.207     qc      0         |                
   |          6      2    0.250   2.207     qc      0         |                
   |         loc     3    0.000   2.501     pn      0         |                
   |                                                          |                
   | Augmentation charge Rinner = 1.504                       |                
   | Partial core correction Rc = 1.504                       |                
   ------------------------------------------------------------                
   | "3|2.5|2.5|1.5|7|8|9|50:51:42U2.2U2.2"                   |                
   ------------------------------------------------------------                
   |      Author: Chris J. Pickard, Cambridge University      |                
   ============================================================                
 Warning: otfg_output_psp cannot write out meta-GGA pseudopotentials presently.

 Pseudo atomic calculation performed for P 3s2 3p3

 Converged in 23 iterations to a total energy of -208.0292 eV

 Pseudo atomic calculation performed for In 4d10 5s2 5p1

 Converged in 42 iterations to a total energy of -1747.4501 eV
 Calculation parallelised over 108 processes.
 Data is distributed by G-vector(3-way) and k-point(36-way)
 Each process may use up to 16 threads.

 ************************************ Title ************************************
 

 ***************************** General Parameters ******************************
  
 output verbosity                               : normal  (1)
 write checkpoint data to                       : P_Vacancy_Migration_5->3_Singlepoints_6.check
 type of calculation                            : single point energy
 stress calculation                             : off
 density difference calculation                 : off
 electron localisation func (ELF) calculation   : off
 Hirshfeld analysis                             : on
 polarisation (Berry phase) analysis            : off
 molecular orbital projected DOS                : off
 deltaSCF calculation                           : off
 unlimited duration calculation
 timing information                             : on
 memory usage estimate                          : on
 write extra output files                       : on
 write final potential to formatted file        : off
 write final density to formatted file          : off
 write BibTeX reference list                    : on
 write OTFG pseudopotential files               : on
 write electrostatic potential file             : on
 write bands file                               : on
 checkpoint writing                             : off
  
 output         length unit                     : A
 output           mass unit                     : amu
 output           time unit                     : ps
 output         charge unit                     : e
 output           spin unit                     : hbar/2
 output         energy unit                     : eV
 output          force unit                     : eV/A
 output       velocity unit                     : A/ps
 output       pressure unit                     : GPa
 output     inv_length unit                     : 1/A
 output      frequency unit                     : cm-1
 output force constant unit                     : eV/A**2
 output         volume unit                     : A**3
 output   IR intensity unit                     : (D/A)**2/amu
 output         dipole unit                     : D
 output         efield unit                     : eV/A/e
 output        entropy unit                     : J/mol/K
 output    efield chi2 unit                     : pm/V
  
 wavefunctions paging                           : none
 random number generator seed                   :  135250513
 data distribution                              : optimal for this architecture
 optimization strategy                          : balance speed and memory

 *********************** Exchange-Correlation Parameters ***********************
  
 using functional                               : RSCAN
 relativistic treatment                         : Koelling-Harmon
 DFT+D: Semi-empirical dispersion correction    : off

 ************************* Pseudopotential Parameters **************************
  
 pseudopotential representation                 : reciprocal space
 <beta|phi> representation                      : reciprocal space
 spin-orbit coupling                            : off

 **************************** Basis Set Parameters *****************************
  
 plane wave basis set cut-off                   :   900.0000   eV
 size of standard grid                          :     2.0000
 size of   fine   gmax                          :    30.7390   1/A
 finite basis set correction                    : none

 **************************** Electronic Parameters ****************************
  
 number of  electrons                           :  571.0    
 net charge of system                           :  0.000    
 net spin   of system                           :  1.000    
 number of  up  spins                           :  286.0    
 number of down spins                           :  285.0    
 treating system as spin-polarized
 number of bands                                :        343

 ********************* Electronic Minimization Parameters **********************
  
 Method: Treating system as metallic with density mixing treatment of electrons,
         and number of  SD  steps               :          1
         and number of  CG  steps               :          4
  
 total energy / atom convergence tol.           : 0.1000E-07   eV
 eigen-energy convergence tolerance             : 0.2203E-08   eV
 max force / atom convergence tol.              : ignored
 convergence tolerance window                   :          3   cycles
 max. number of SCF cycles                      :        100
 number of fixed-spin iterations                :         10
 smearing scheme                                : Gaussian
 smearing width                                 : 0.2000       eV
 Fermi energy convergence tolerance             : 0.2721E-13   eV
 periodic dipole correction                     : NONE

 ************************** Density Mixing Parameters **************************
  
 density-mixing scheme                          : Pulay
 max. length of mixing history                  :         20
 charge density mixing amplitude                : 0.5000    
   spin density mixing amplitude                :  2.000    
 cut-off energy for mixing                      :  900.0       eV

 *********************** Population Analysis Parameters ************************
  
 Population analysis with cutoff                :  3.000       A
 Population analysis output                     : summary and pdos components

 *******************************************************************************
  

                           -------------------------------
                                      Unit Cell
                           -------------------------------
        Real Lattice(A)                      Reciprocal Lattice(1/A)
    11.8016820    -0.0000080    -0.0000080        0.532397442   0.000000361   0.000000361
    -0.0000080    11.8016820    -0.0000080        0.000000361   0.532397442   0.000000361
    -0.0000080    -0.0000080    11.8016820        0.000000361   0.000000361   0.532397442

                       Lattice parameters(A)       Cell Angles
                    a =     11.801682          alpha =   90.000078
                    b =     11.801682          beta  =   90.000078
                    c =     11.801682          gamma =   90.000078

                       Current cell volume =          1643.734705       A**3
                                   density =             2.819410   AMU/A**3
                                           =             4.681741     g/cm^3

                           -------------------------------
                                     Cell Contents
                           -------------------------------
                         Total number of ions in cell =   63
                      Total number of species in cell =    2
                        Max number of any one species =   32

            xxxxxxxxxxxxxxxxxxxxxxxxxxxxxxxxxxxxxxxxxxxxxxxxxxxxxxxxxxxx
            x  Element    Atom        Fractional coordinates of atoms  x
            x            Number           u          v          w      x
            x----------------------------------------------------------x
            x  P            1         0.132330   0.132593   0.375478   x 
            x  P            2         0.375478   0.132593   0.132330   x 
            x  P            3         0.116955   0.374326   0.116955   x 
            x  P            4         0.124990   0.121493   0.877366   x 
            x  P            5         0.377127   0.116603   0.632923   x 
            x  P            6         0.118056   0.382023   0.637282   x 
            x  P            7         0.374070   0.374781   0.872689   x 
            x  P            8         0.124485   0.623236   0.374933   x 
            x  P            9         0.374933   0.623236   0.124485   x 
            x  P           10         0.135799   0.883001   0.135799   x 
            x  P           11         0.360902   0.884945   0.360902   x 
            x  P           12         0.122825   0.628432   0.876103   x 
            x  P           13         0.376294   0.622800   0.619864   x 
            x  P           14         0.126672   0.872008   0.622120   x 
            x  P           15         0.375814   0.869082   0.878709   x 
            x  P           16         0.632923   0.116603   0.377127   x 
            x  P           17         0.877366   0.121493   0.124990   x 
            x  P           18         0.637282   0.382023   0.118056   x 
            x  P           19         0.872689   0.374781   0.374070   x 
            x  P           20         0.623729   0.121093   0.878929   x 
            x  P           21         0.878929   0.121093   0.623729   x 
            x  P           22         0.621175   0.370560   0.621175   x 
            x  P           23         0.870395   0.374301   0.870395   x 
            x  P           24         0.619864   0.622800   0.376294   x 
            x  P           25         0.876103   0.628432   0.122825   x 
            x  P           26         0.622120   0.872008   0.126672   x 
            x  P           27         0.878709   0.869082   0.375814   x 
            x  P           28         0.623688   0.623277   0.873160   x 
            x  P           29         0.873160   0.623277   0.623688   x 
            x  P           30         0.622494   0.876517   0.622494   x 
            x  P           31         0.874409   0.874811   0.874409   x 
            x  In           1         0.004938  -0.007343   0.004938   x 
            x  In           2         0.350501   0.325270   0.350501   x 
            x  In           3        -0.000107   0.249173   0.251077   x 
            x  In           4         0.251077   0.249173  -0.000107   x 
            x  In           5         0.007890  -0.000653   0.491954   x 
            x  In           6         0.249243  -0.008298   0.755674   x 
            x  In           7        -0.002632   0.246210   0.754555   x 
            x  In           8         0.232733   0.236975   0.533475   x 
            x  In           9        -0.006096   0.500557  -0.006096   x 
            x  In          10         0.237933   0.503942   0.237933   x 
            x  In          11         0.006418   0.752319   0.245930   x 
            x  In          12         0.245930   0.752319   0.006418   x 
            x  In          13        -0.001393   0.498658   0.498176   x 
            x  In          14         0.251450   0.507121   0.752707   x 
            x  In          15        -0.001719   0.750400   0.747089   x 
            x  In          16         0.254982   0.751392   0.492578   x 
            x  In          17         0.491954  -0.000653   0.007890   x 
            x  In          18         0.755674  -0.008298   0.249243   x 
            x  In          19         0.533475   0.236975   0.232733   x 
            x  In          20         0.754555   0.246210  -0.002632   x 
            x  In          21         0.491923  -0.005236   0.491923   x 
            x  In          22         0.749001   0.000490   0.749001   x 
            x  In          23         0.501652   0.246843   0.752275   x 
            x  In          24         0.752275   0.246843   0.501652   x 
            x  In          25         0.498176   0.498658  -0.001393   x 
            x  In          26         0.752707   0.507121   0.251450   x 
            x  In          27         0.492578   0.751392   0.254982   x 
            x  In          28         0.747089   0.750400  -0.001719   x 
            x  In          29         0.491589   0.488580   0.491589   x 
            x  In          30         0.745122   0.498908   0.745122   x 
            x  In          31         0.500791   0.748759   0.747287   x 
            x  In          32         0.747287   0.748759   0.500791   x 
            xxxxxxxxxxxxxxxxxxxxxxxxxxxxxxxxxxxxxxxxxxxxxxxxxxxxxxxxxxxx


                         No user defined ionic velocities

                           -------------------------------
                                   Details of Species
                           -------------------------------

                               Mass of species in AMU
                                    P   30.9737600
                                    In  114.8180000

                          Electric Quadrupole Moment (Barn)
                                    P    1.0000000 No Isotope Defined
                                    In    0.7700000 Isotope115

                          Files used for pseudopotentials:
                                    P 3|1.8|4|4|5|30:31:32
                                    In 3|2.5|2.5|1.5|7|8|9|50:51:42U2.2U2.2

                           -------------------------------
                              k-Points For BZ Sampling
                           -------------------------------
                       MP grid size for SCF calculation is  4  4  4
                            with an offset of   0.125  0.125  0.125
                       Number of kpoints used =            36

                           -------------------------------
                               Symmetry and Constraints
                           -------------------------------

                      Maximum deviation from symmetry =  0.00000         ANG

                      Number of symmetry operations   =           1
                      Number of ionic constraints     =           3
                      Point group of crystal =     1: C1, 1, 1
                      Space group of crystal =     8: Cm, C -2y

             Set iprint > 1 for details on symmetry rotations/translations

                         Centre of mass is constrained
             Set iprint > 1 for details of linear ionic constraints

                         Number of cell constraints= 0
                         Cell constraints are:  1 2 3 4 5 6

                         External pressure/stress (GPa)
                          0.00000   0.00000   0.00000
                                    0.00000   0.00000
                                              0.00000
 
+---------------- MEMORY AND SCRATCH DISK ESTIMATES PER PROCESS --------------+
|                                                     Memory          Disk    |
| Baseline code, static data and system overhead      368.0 MB         0.0 MB |
| BLAS internal memory storage                          0.0 MB         0.0 MB |
| Model and support data                             4302.1 MB         0.0 MB |
| Electronic energy minimisation requirements        1320.9 MB         0.0 MB |
| Force calculation requirements                      127.4 MB         0.0 MB |
|                                               ----------------------------- |
| Approx. total storage required per process         5991.0 MB         0.0 MB |
|                                                                             |
| Requirements will fluctuate during execution and may exceed these estimates |
+-----------------------------------------------------------------------------+
Calculating approximate eigenstates for fixed initial Hamiltonian
Cut-off for approx. calculation is   89.988 eV
Improving approx. states at cut-off of  450.000 eV
Resetting cut-off to  900.000 eV
Calculating total energy with cut-off of  900.000 eV.
------------------------------------------------------------------------ <-- SCF
SCF loop      Energy           Fermi           Energy gain       Timer   <-- SCF
                               energy          per atom          (sec)   <-- SCF
------------------------------------------------------------------------ <-- SCF
Initial  -6.28306317E+004  0.00000000E+000                       420.88  <-- SCF
      1  -6.25832434E+004  2.53632614E+000  -3.92679905E+000     858.90  <-- SCF
      2  -6.25835271E+004  2.53614158E+000   4.50376007E-003    1181.98  <-- SCF
      3  -6.26502287E+004  2.62391539E+000   1.05875571E+000    1537.28  <-- SCF
      4  -6.26622250E+004  2.67082256E+000   1.90417276E-001    2024.91  <-- SCF
      5  -6.26694990E+004  2.78184594E+000   1.15460325E-001    2385.06  <-- SCF
      6  -6.26584166E+004  2.92115949E+000  -1.75910788E-001    2729.09  <-- SCF
      7  -6.26572021E+004  2.96301285E+000  -1.92784475E-002    3083.62  <-- SCF
      8  -6.26568939E+004  2.99166585E+000  -4.89194583E-003    3451.42  <-- SCF
      9  -6.26576785E+004  2.99456702E+000   1.24534730E-002    3811.35  <-- SCF
     10  -6.26581867E+004  3.00016049E+000   8.06672583E-003    4171.76  <-- SCF
     11  -6.26582720E+004  2.99580827E+000   1.35462514E-003    4535.50  <-- SCF
     12  -6.26582940E+004  2.99454122E+000   3.48614757E-004    4894.86  <-- SCF
     13  -6.26583083E+004  2.99198344E+000   2.26913885E-004    5255.02  <-- SCF
     14  -6.26583094E+004  2.99094036E+000   1.74028238E-005    5617.49  <-- SCF
     15  -6.26583097E+004  2.99010065E+000   5.17303434E-006    5985.43  <-- SCF
     16  -6.26583099E+004  2.98966402E+000   3.61393015E-006    6324.39  <-- SCF
     17  -6.26583102E+004  2.98889738E+000   4.62128565E-006    6682.12  <-- SCF
     18  -6.26583104E+004  2.98843773E+000   3.13477837E-006    7047.28  <-- SCF
     19  -6.26583105E+004  2.98791707E+000   2.07003201E-006    7398.25  <-- SCF
     20  -6.26583106E+004  2.98781711E+000   4.49006007E-007    7734.38  <-- SCF
     21  -6.26583106E+004  2.98778368E+000   1.55267289E-007    8044.30  <-- SCF
     22  -6.26583106E+004  2.98777963E+000   6.29315945E-008    8341.02  <-- SCF
     23  -6.26583106E+004  2.98776114E+000   1.82909917E-008    8602.86  <-- SCF
     24  -6.26583106E+004  2.98775277E+000   7.78049208E-009    8855.01  <-- SCF
     25  -6.26583106E+004  2.98775595E+000   1.92390992E-009    9100.92  <-- SCF
------------------------------------------------------------------------ <-- SCF
 
Integrated Spin Density     =     1.10219     hbar/2
Integrated |Spin Density|   =     1.24855     hbar/2
 
Final energy, E             =  -62658.03105996     eV
Final free energy (E-TS)    =  -62658.31057942     eV
(energies not corrected for finite basis set)
 
NB est. 0K energy (E-0.5TS)      =  -62658.17081969     eV
 

 ************************** Forces **************************
 *                                                          *
 *               Cartesian components (eV/A)                *
 * -------------------------------------------------------- *
 *                         x            y            z      *
 *                                                          *
 * P               1      0.25465     -0.16267     -0.29988 *
 * P               2     -0.29988     -0.16267      0.25466 *
 * P               3      0.00401     -0.12378      0.00401 *
 * P               4      0.05043      0.03978     -0.04103 *
 * P               5      0.07323      0.09182     -0.09945 *
 * P               6      0.16783      0.04390     -0.13612 *
 * P               7      0.01904      0.07017     -0.05152 *
 * P               8      0.01389     -0.08313      0.08083 *
 * P               9      0.08084     -0.08313      0.01389 *
 * P              10      0.06956      0.01931      0.06956 *
 * P              11      0.03869     -0.03026      0.03870 *
 * P              12      0.05030     -0.04139     -0.04088 *
 * P              13     -0.13463     -0.13976     -0.06457 *
 * P              14      0.02485     -0.00772      0.01598 *
 * P              15      0.01299      0.02849     -0.05412 *
 * P              16     -0.09946      0.09182      0.07323 *
 * P              17     -0.04103      0.03978      0.05043 *
 * P              18     -0.13612      0.04390      0.16784 *
 * P              19     -0.05152      0.07017      0.01904 *
 * P              20     -0.02442      0.00243     -0.03723 *
 * P              21     -0.03723      0.00243     -0.02442 *
 * P              22     -0.03478     -0.04671     -0.03478 *
 * P              23      0.00464      0.01946      0.00463 *
 * P              24     -0.06457     -0.13976     -0.13464 *
 * P              25     -0.04088     -0.04139      0.05030 *
 * P              26      0.01599     -0.00772      0.02485 *
 * P              27     -0.05413      0.02849      0.01299 *
 * P              28     -0.02031     -0.00205     -0.00992 *
 * P              29     -0.00992     -0.00206     -0.02031 *
 * P              30      0.01853      0.02155      0.01852 *
 * P              31     -0.04551      0.02113     -0.04552 *
 * In              1      0.07463     -0.17964      0.07463 *
 * In              2     -0.13643      0.28687     -0.13642 *
 * In              3      0.08171     -0.05172      0.18486 *
 * In              4      0.18486     -0.05172      0.08171 *
 * In              5     -0.01914      0.12209      0.27712 *
 * In              6     -0.18244      0.00005     -0.03257 *
 * In              7      0.02073     -0.18453     -0.03419 *
 * In              8     -0.54469     -0.26151      0.24146 *
 * In              9      0.01324      0.18853      0.01323 *
 * In             10     -0.15716      0.15441     -0.15716 *
 * In             11      0.09769      0.12445     -0.34039 *
 * In             12     -0.34039      0.12445      0.09768 *
 * In             13     -0.06431     -0.06475     -0.01972 *
 * In             14     -0.01119     -0.06619      0.08877 *
 * In             15     -0.00337      0.06753      0.08904 *
 * In             16      0.14378      0.26398     -0.07362 *
 * In             17      0.27711      0.12208     -0.01915 *
 * In             18     -0.03257      0.00005     -0.18244 *
 * In             19      0.24147     -0.26151     -0.54469 *
 * In             20     -0.03419     -0.18454      0.02073 *
 * In             21     -0.15360     -0.26672     -0.15360 *
 * In             22      0.04902     -0.08604      0.04902 *
 * In             23     -0.03775      0.02649      0.15149 *
 * In             24      0.15149      0.02649     -0.03775 *
 * In             25     -0.01972     -0.06475     -0.06430 *
 * In             26      0.08877     -0.06619     -0.01120 *
 * In             27     -0.07361      0.26397      0.14378 *
 * In             28      0.08904      0.06753     -0.00336 *
 * In             29      0.39400      0.24252      0.39401 *
 * In             30      0.01141      0.05941      0.01141 *
 * In             31      0.08619      0.04423      0.00035 *
 * In             32      0.00034      0.04424      0.08620 *
 *                                                          *
 ************************************************************

 Pseudo atomic calculation performed for P 3s2 3p3

 Converged in 23 iterations to a total energy of -208.0292 eV

 Pseudo atomic calculation performed for In 4d10 5s2 5p1

 Converged in 42 iterations to a total energy of -1747.4501 eV
Charge spilling parameter for spin component 1 = 0.17%
Charge spilling parameter for spin component 2 = 0.17%

                   Orbital Populations                  
  ---------------------------------------------------------------
     Ion    Atom   Orbital              Up        Down      Spin
  ---------------------------------------------------------------
      P     1      S                    0.902     0.899     0.003
      P     1      Px                   0.617     0.613     0.004
      P     1      Py                   0.638     0.615     0.023
      P     1      Pz                   0.641     0.636     0.006
      P     2      S                    0.902     0.899     0.003
      P     2      Px                   0.641     0.636     0.006
      P     2      Py                   0.638     0.615     0.023
      P     2      Pz                   0.617     0.613     0.004
      P     3      S                    0.872     0.868     0.004
      P     3      Px                   0.658     0.636     0.022
      P     3      Py                   0.662     0.659     0.002
      P     3      Pz                   0.658     0.636     0.022
      P     4      S                    0.869     0.869    -0.000
      P     4      Px                   0.655     0.655    -0.000
      P     4      Py                   0.652     0.653    -0.000
      P     4      Pz                   0.656     0.657    -0.001
      P     5      S                    0.872     0.870     0.002
      P     5      Px                   0.652     0.650     0.003
      P     5      Py                   0.654     0.642     0.012
      P     5      Pz                   0.663     0.650     0.013
      P     6      S                    0.871     0.870     0.001
      P     6      Px                   0.655     0.650     0.005
      P     6      Py                   0.648     0.648    -0.000
      P     6      Pz                   0.659     0.654     0.005
      P     7      S                    0.869     0.869     0.000
      P     7      Px                   0.657     0.657    -0.000
      P     7      Py                   0.653     0.652     0.000
      P     7      Pz                   0.655     0.655     0.001
      P     8      S                    0.871     0.869     0.002
      P     8      Px                   0.659     0.647     0.012
      P     8      Py                   0.657     0.643     0.014
      P     8      Pz                   0.655     0.656    -0.000
      P     9      S                    0.871     0.869     0.002
      P     9      Px                   0.655     0.656    -0.000
      P     9      Py                   0.657     0.643     0.014
      P     9      Pz                   0.659     0.647     0.012
      P    10      S                    0.903     0.903    -0.000
      P    10      Px                   0.620     0.622    -0.002
      P    10      Py                   0.630     0.629     0.001
      P    10      Pz                   0.620     0.622    -0.002
      P    11      S                    0.907     0.907     0.000
      P    11      Px                   0.619     0.620    -0.001
      P    11      Py                   0.620     0.618     0.002
      P    11      Pz                   0.619     0.620    -0.001
      P    12      S                    0.870     0.870    -0.000
      P    12      Px                   0.653     0.653    -0.001
      P    12      Py                   0.656     0.656     0.000
      P    12      Pz                   0.653     0.653    -0.000
      P    13      S                    0.875     0.874     0.001
      P    13      Px                   0.667     0.665     0.001
      P    13      Py                   0.644     0.643     0.001
      P    13      Pz                   0.642     0.640     0.002
      P    14      S                    0.870     0.870     0.000
      P    14      Px                   0.655     0.656    -0.000
      P    14      Py                   0.655     0.655     0.000
      P    14      Pz                   0.652     0.652    -0.000
      P    15      S                    0.872     0.870     0.002
      P    15      Px                   0.665     0.659     0.007
      P    15      Py                   0.654     0.646     0.008
      P    15      Pz                   0.652     0.645     0.007
      P    16      S                    0.872     0.870     0.002
      P    16      Px                   0.663     0.650     0.013
      P    16      Py                   0.654     0.642     0.012
      P    16      Pz                   0.652     0.650     0.003
      P    17      S                    0.869     0.869    -0.000
      P    17      Px                   0.656     0.657    -0.001
      P    17      Py                   0.652     0.653    -0.000
      P    17      Pz                   0.655     0.655    -0.000
      P    18      S                    0.871     0.870     0.001
      P    18      Px                   0.659     0.654     0.005
      P    18      Py                   0.648     0.648    -0.000
      P    18      Pz                   0.655     0.650     0.005
      P    19      S                    0.869     0.869     0.000
      P    19      Px                   0.655     0.655     0.001
      P    19      Py                   0.653     0.652     0.000
      P    19      Pz                   0.657     0.657    -0.000
      P    20      S                    0.872     0.872     0.000
      P    20      Px                   0.649     0.650    -0.001
      P    20      Py                   0.658     0.657     0.001
      P    20      Pz                   0.649     0.649    -0.000
      P    21      S                    0.872     0.872     0.000
      P    21      Px                   0.649     0.649    -0.000
      P    21      Py                   0.658     0.657     0.001
      P    21      Pz                   0.649     0.650    -0.001
      P    22      S                    0.873     0.871     0.002
      P    22      Px                   0.651     0.641     0.009
      P    22      Py                   0.666     0.662     0.004
      P    22      Pz                   0.651     0.641     0.009
      P    23      S                    0.870     0.868     0.002
      P    23      Px                   0.657     0.649     0.008
      P    23      Py                   0.661     0.655     0.006
      P    23      Pz                   0.657     0.649     0.008
      P    24      S                    0.875     0.874     0.001
      P    24      Px                   0.642     0.640     0.002
      P    24      Py                   0.644     0.643     0.001
      P    24      Pz                   0.667     0.665     0.001
      P    25      S                    0.870     0.870    -0.000
      P    25      Px                   0.653     0.653    -0.000
      P    25      Py                   0.656     0.656     0.000
      P    25      Pz                   0.653     0.653    -0.001
      P    26      S                    0.870     0.870     0.000
      P    26      Px                   0.652     0.652    -0.000
      P    26      Py                   0.655     0.655     0.000
      P    26      Pz                   0.655     0.656    -0.000
      P    27      S                    0.872     0.870     0.002
      P    27      Px                   0.652     0.645     0.007
      P    27      Py                   0.654     0.646     0.008
      P    27      Pz                   0.665     0.659     0.007
      P    28      S                    0.869     0.869    -0.000
      P    28      Px                   0.657     0.658    -0.001
      P    28      Py                   0.655     0.655    -0.000
      P    28      Pz                   0.653     0.654    -0.000
      P    29      S                    0.869     0.869    -0.000
      P    29      Px                   0.653     0.654    -0.000
      P    29      Py                   0.655     0.655    -0.000
      P    29      Pz                   0.657     0.658    -0.001
      P    30      S                    0.871     0.871    -0.000
      P    30      Px                   0.652     0.653    -0.001
      P    30      Py                   0.655     0.655    -0.000
      P    30      Pz                   0.652     0.653    -0.001
      P    31      S                    0.871     0.871     0.000
      P    31      Px                   0.651     0.652    -0.001
      P    31      Py                   0.657     0.658    -0.000
      P    31      Pz                   0.651     0.652    -0.001
     In     1      Dzz                  1.000     1.000     0.000
     In     1      Dzy                  0.999     0.999     0.000
     In     1      Dzx                  0.998     0.998     0.000
     In     1      Dxx-yy               1.000     1.000     0.000
     In     1      Dxy                  0.999     0.999     0.000
     In     1      S                    0.708     0.707     0.001
     In     1      Px                   0.239     0.239     0.000
     In     1      Py                   0.248     0.248    -0.000
     In     1      Pz                   0.239     0.239     0.000
     In     1      S                   -0.240    -0.239    -0.001
     In     2      Dzz                  0.999     0.999    -0.000
     In     2      Dzy                  0.999     0.999    -0.000
     In     2      Dzx                  0.998     0.999    -0.000
     In     2      Dxx-yy               0.999     0.999    -0.000
     In     2      Dxy                  0.999     0.999    -0.000
     In     2      S                    0.777     0.774     0.003
     In     2      Px                   0.381     0.213     0.168
     In     2      Py                   0.292     0.201     0.091
     In     2      Pz                   0.381     0.213     0.168
     In     2      S                   -0.112    -0.112     0.001
     In     3      Dzz                  1.000     1.000    -0.000
     In     3      Dzy                  0.998     0.998     0.000
     In     3      Dzx                  0.998     0.998     0.000
     In     3      Dxx-yy               1.000     1.000     0.000
     In     3      Dxy                  0.999     0.999     0.000
     In     3      S                    0.709     0.710    -0.001
     In     3      Px                   0.235     0.236    -0.001
     In     3      Py                   0.234     0.234    -0.001
     In     3      Pz                   0.250     0.252    -0.002
     In     3      S                   -0.251    -0.250    -0.000
     In     4      Dzz                  1.000     1.000     0.000
     In     4      Dzy                  0.999     0.999     0.000
     In     4      Dzx                  0.998     0.998     0.000
     In     4      Dxx-yy               1.000     1.000    -0.000
     In     4      Dxy                  0.998     0.998     0.000
     In     4      S                    0.709     0.710    -0.001
     In     4      Px                   0.250     0.252    -0.002
     In     4      Py                   0.234     0.234    -0.001
     In     4      Pz                   0.235     0.236    -0.001
     In     4      S                   -0.251    -0.250    -0.000
     In     5      Dzz                  1.000     1.000     0.000
     In     5      Dzy                  0.998     0.998     0.000
     In     5      Dzx                  0.999     0.999     0.000
     In     5      Dxx-yy               1.000     1.000     0.000
     In     5      Dxy                  0.999     0.999     0.000
     In     5      S                    0.714     0.712     0.003
     In     5      Px                   0.234     0.234    -0.000
     In     5      Py                   0.245     0.245    -0.000
     In     5      Pz                   0.238     0.232     0.006
     In     5      S                   -0.239    -0.240     0.001
     In     6      Dzz                  1.000     1.000     0.000
     In     6      Dzy                  0.998     0.998     0.000
     In     6      Dzx                  0.998     0.998     0.000
     In     6      Dxx-yy               1.000     1.000     0.000
     In     6      Dxy                  0.998     0.998     0.000
     In     6      S                    0.712     0.710     0.001
     In     6      Px                   0.246     0.241     0.005
     In     6      Py                   0.240     0.240     0.000
     In     6      Pz                   0.237     0.236     0.000
     In     6      S                   -0.281    -0.279    -0.002
     In     7      Dzz                  1.000     1.000    -0.000
     In     7      Dzy                  0.998     0.998     0.000
     In     7      Dzx                  0.998     0.998     0.000
     In     7      Dxx-yy               1.000     1.000     0.000
     In     7      Dxy                  0.998     0.998     0.000
     In     7      S                    0.709     0.707     0.001
     In     7      Px                   0.240     0.241    -0.000
     In     7      Py                   0.249     0.245     0.003
     In     7      Pz                   0.235     0.236    -0.000
     In     7      S                   -0.270    -0.268    -0.002
     In     8      Dzz                  0.999     0.999    -0.000
     In     8      Dzy                  0.998     0.998     0.000
     In     8      Dzx                  0.998     0.997     0.000
     In     8      Dxx-yy               1.000     1.000    -0.000
     In     8      Dxy                  0.998     0.998     0.000
     In     8      S                    0.727     0.722     0.005
     In     8      Px                   0.287     0.255     0.032
     In     8      Py                   0.265     0.235     0.030
     In     8      Pz                   0.274     0.257     0.017
     In     8      S                   -0.225    -0.219    -0.005
     In     9      Dzz                  1.000     1.000     0.000
     In     9      Dzy                  0.998     0.998     0.000
     In     9      Dzx                  0.998     0.998    -0.000
     In     9      Dxx-yy               1.000     1.000     0.000
     In     9      Dxy                  0.998     0.998     0.000
     In     9      S                    0.715     0.713     0.002
     In     9      Px                   0.240     0.239     0.002
     In     9      Py                   0.248     0.240     0.008
     In     9      Pz                   0.240     0.239     0.002
     In     9      S                   -0.271    -0.268    -0.003
     In    10      Dzz                  1.000     1.000    -0.000
     In    10      Dzy                  0.998     0.998     0.000
     In    10      Dzx                  0.998     0.998    -0.000
     In    10      Dxx-yy               0.999     0.999    -0.000
     In    10      Dxy                  0.998     0.998     0.000
     In    10      S                    0.741     0.723     0.019
     In    10      Px                   0.272     0.238     0.034
     In    10      Py                   0.291     0.247     0.044
     In    10      Pz                   0.272     0.238     0.034
     In    10      S                   -0.267    -0.264    -0.003
     In    11      Dzz                  1.000     1.000     0.000
     In    11      Dzy                  0.998     0.998     0.000
     In    11      Dzx                  0.998     0.998     0.000
     In    11      Dxx-yy               1.000     1.000    -0.000
     In    11      Dxy                  0.998     0.998    -0.000
     In    11      S                    0.706     0.705     0.002
     In    11      Px                   0.239     0.238     0.001
     In    11      Py                   0.238     0.237     0.001
     In    11      Pz                   0.255     0.249     0.006
     In    11      S                   -0.233    -0.232    -0.002
     In    12      Dzz                  1.000     1.000     0.000
     In    12      Dzy                  0.998     0.998    -0.000
     In    12      Dzx                  0.998     0.998     0.000
     In    12      Dxx-yy               1.000     1.000     0.000
     In    12      Dxy                  0.998     0.998     0.000
     In    12      S                    0.706     0.705     0.002
     In    12      Px                   0.255     0.249     0.006
     In    12      Py                   0.238     0.237     0.001
     In    12      Pz                   0.239     0.238     0.001
     In    12      S                   -0.234    -0.232    -0.002
     In    13      Dzz                  1.000     1.000     0.000
     In    13      Dzy                  0.998     0.998    -0.000
     In    13      Dzx                  0.998     0.998     0.000
     In    13      Dxx-yy               1.000     1.000     0.000
     In    13      Dxy                  0.999     0.999     0.000
     In    13      S                    0.709     0.710    -0.001
     In    13      Px                   0.239     0.240    -0.001
     In    13      Py                   0.236     0.237    -0.001
     In    13      Pz                   0.240     0.241    -0.001
     In    13      S                   -0.283    -0.279    -0.004
     In    14      Dzz                  1.000     1.000    -0.000
     In    14      Dzy                  0.998     0.998     0.000
     In    14      Dzx                  0.998     0.998    -0.000
     In    14      Dxx-yy               1.000     1.000    -0.000
     In    14      Dxy                  0.998     0.998    -0.000
     In    14      S                    0.710     0.710    -0.000
     In    14      Px                   0.248     0.249    -0.000
     In    14      Py                   0.238     0.238    -0.000
     In    14      Pz                   0.236     0.236     0.000
     In    14      S                   -0.266    -0.260    -0.006
     In    15      Dzz                  1.000     1.000    -0.000
     In    15      Dzy                  0.998     0.998    -0.000
     In    15      Dzx                  0.998     0.998     0.000
     In    15      Dxx-yy               1.000     1.000     0.000
     In    15      Dxy                  0.998     0.998    -0.000
     In    15      S                    0.709     0.708     0.001
     In    15      Px                   0.241     0.241     0.000
     In    15      Py                   0.240     0.240     0.000
     In    15      Pz                   0.240     0.240     0.000
     In    15      S                   -0.267    -0.269     0.001
     In    16      Dzz                  1.000     1.000     0.000
     In    16      Dzy                  0.998     0.998     0.000
     In    16      Dzx                  0.999     0.999     0.000
     In    16      Dxx-yy               1.000     1.000     0.000
     In    16      Dxy                  0.998     0.999    -0.000
     In    16      S                    0.705     0.706    -0.001
     In    16      Px                   0.247     0.247    -0.001
     In    16      Py                   0.240     0.240    -0.000
     In    16      Pz                   0.239     0.239    -0.000
     In    16      S                   -0.245    -0.241    -0.004
     In    17      Dzz                  1.000     1.000     0.000
     In    17      Dzy                  0.999     0.999     0.000
     In    17      Dzx                  0.999     0.999     0.000
     In    17      Dxx-yy               1.000     1.000     0.000
     In    17      Dxy                  0.998     0.998     0.000
     In    17      S                    0.714     0.712     0.002
     In    17      Px                   0.238     0.232     0.006
     In    17      Py                   0.245     0.245    -0.000
     In    17      Pz                   0.234     0.234    -0.000
     In    17      S                   -0.239    -0.240     0.001
     In    18      Dzz                  1.000     1.000     0.000
     In    18      Dzy                  0.998     0.998     0.000
     In    18      Dzx                  0.998     0.998     0.000
     In    18      Dxx-yy               1.000     1.000     0.000
     In    18      Dxy                  0.998     0.998     0.000
     In    18      S                    0.712     0.710     0.001
     In    18      Px                   0.237     0.236     0.000
     In    18      Py                   0.240     0.240     0.000
     In    18      Pz                   0.246     0.241     0.005
     In    18      S                   -0.281    -0.279    -0.002
     In    19      Dzz                  1.000     1.000    -0.000
     In    19      Dzy                  0.998     0.998     0.000
     In    19      Dzx                  0.998     0.997     0.000
     In    19      Dxx-yy               0.999     0.999     0.000
     In    19      Dxy                  0.998     0.998     0.000
     In    19      S                    0.727     0.722     0.005
     In    19      Px                   0.274     0.257     0.017
     In    19      Py                   0.265     0.235     0.030
     In    19      Pz                   0.287     0.255     0.032
     In    19      S                   -0.225    -0.219    -0.005
     In    20      Dzz                  1.000     1.000     0.000
     In    20      Dzy                  0.998     0.998     0.000
     In    20      Dzx                  0.999     0.998     0.000
     In    20      Dxx-yy               1.000     1.000     0.000
     In    20      Dxy                  0.998     0.998     0.000
     In    20      S                    0.709     0.707     0.001
     In    20      Px                   0.235     0.236    -0.000
     In    20      Py                   0.249     0.245     0.003
     In    20      Pz                   0.240     0.241    -0.000
     In    20      S                   -0.270    -0.268    -0.002
     In    21      Dzz                  1.000     1.000     0.000
     In    21      Dzy                  0.999     0.999     0.000
     In    21      Dzx                  0.998     0.998    -0.000
     In    21      Dxx-yy               1.000     1.000     0.000
     In    21      Dxy                  0.999     0.999     0.000
     In    21      S                    0.709     0.710    -0.001
     In    21      Px                   0.237     0.238    -0.001
     In    21      Py                   0.241     0.243    -0.002
     In    21      Pz                   0.237     0.238    -0.001
     In    21      S                   -0.248    -0.245    -0.003
     In    22      Dzz                  1.000     1.000    -0.000
     In    22      Dzy                  0.998     0.998    -0.000
     In    22      Dzx                  0.998     0.998     0.000
     In    22      Dxx-yy               1.000     1.000    -0.000
     In    22      Dxy                  0.998     0.998    -0.000
     In    22      S                    0.710     0.709     0.001
     In    22      Px                   0.240     0.240    -0.000
     In    22      Py                   0.243     0.243    -0.000
     In    22      Pz                   0.240     0.240    -0.000
     In    22      S                   -0.247    -0.248     0.001
     In    23      Dzz                  1.000     1.000     0.000
     In    23      Dzy                  0.998     0.998     0.000
     In    23      Dzx                  0.999     0.999     0.000
     In    23      Dxx-yy               1.000     1.000    -0.000
     In    23      Dxy                  0.998     0.998     0.000
     In    23      S                    0.708     0.709    -0.001
     In    23      Px                   0.239     0.240    -0.001
     In    23      Py                   0.241     0.242    -0.001
     In    23      Pz                   0.237     0.237    -0.001
     In    23      S                   -0.286    -0.280    -0.006
     In    24      Dzz                  1.000     1.000     0.000
     In    24      Dzy                  0.998     0.998     0.000
     In    24      Dzx                  0.999     0.999     0.000
     In    24      Dxx-yy               1.000     1.000     0.000
     In    24      Dxy                  0.998     0.998     0.000
     In    24      S                    0.708     0.709    -0.001
     In    24      Px                   0.237     0.237    -0.001
     In    24      Py                   0.241     0.242    -0.001
     In    24      Pz                   0.239     0.240    -0.001
     In    24      S                   -0.286    -0.280    -0.006
     In    25      Dzz                  1.000     1.000     0.000
     In    25      Dzy                  0.999     0.999     0.000
     In    25      Dzx                  0.998     0.998     0.000
     In    25      Dxx-yy               1.000     1.000     0.000
     In    25      Dxy                  0.998     0.998    -0.000
     In    25      S                    0.709     0.710    -0.001
     In    25      Px                   0.240     0.241    -0.001
     In    25      Py                   0.236     0.237    -0.001
     In    25      Pz                   0.239     0.240    -0.001
     In    25      S                   -0.283    -0.279    -0.004
     In    26      Dzz                  1.000     1.000     0.000
     In    26      Dzy                  0.998     0.998     0.000
     In    26      Dzx                  0.998     0.998    -0.000
     In    26      Dxx-yy               1.000     1.000    -0.000
     In    26      Dxy                  0.998     0.998     0.000
     In    26      S                    0.710     0.710    -0.000
     In    26      Px                   0.236     0.236     0.000
     In    26      Py                   0.238     0.238    -0.000
     In    26      Pz                   0.248     0.249    -0.000
     In    26      S                   -0.266    -0.260    -0.006
     In    27      Dzz                  1.000     1.000     0.000
     In    27      Dzy                  0.998     0.999    -0.000
     In    27      Dzx                  0.999     0.999     0.000
     In    27      Dxx-yy               1.000     1.000     0.000
     In    27      Dxy                  0.998     0.998     0.000
     In    27      S                    0.705     0.706    -0.001
     In    27      Px                   0.239     0.239    -0.000
     In    27      Py                   0.240     0.240    -0.000
     In    27      Pz                   0.247     0.247    -0.001
     In    27      S                   -0.245    -0.241    -0.004
     In    28      Dzz                  1.000     1.000    -0.000
     In    28      Dzy                  0.998     0.998    -0.000
     In    28      Dzx                  0.998     0.998     0.000
     In    28      Dxx-yy               1.000     1.000     0.000
     In    28      Dxy                  0.998     0.998    -0.000
     In    28      S                    0.709     0.708     0.001
     In    28      Px                   0.240     0.240     0.000
     In    28      Py                   0.240     0.240     0.000
     In    28      Pz                   0.241     0.241     0.000
     In    28      S                   -0.267    -0.269     0.001
     In    29      Dzz                  1.000     1.000    -0.000
     In    29      Dzy                  0.999     0.999     0.000
     In    29      Dzx                  0.999     0.999     0.000
     In    29      Dxx-yy               1.000     1.000     0.000
     In    29      Dxy                  0.999     0.999     0.000
     In    29      S                    0.741     0.734     0.007
     In    29      Px                   0.240     0.234     0.006
     In    29      Py                   0.252     0.243     0.009
     In    29      Pz                   0.240     0.234     0.006
     In    29      S                   -0.260    -0.261     0.001
     In    30      Dzz                  1.000     1.000     0.000
     In    30      Dzy                  0.998     0.998     0.000
     In    30      Dzx                  0.998     0.998    -0.000
     In    30      Dxx-yy               1.000     1.000     0.000
     In    30      Dxy                  0.998     0.998     0.000
     In    30      S                    0.709     0.708     0.001
     In    30      Px                   0.239     0.238     0.000
     In    30      Py                   0.243     0.239     0.003
     In    30      Pz                   0.239     0.238     0.000
     In    30      S                   -0.226    -0.226     0.000
     In    31      Dzz                  1.000     1.000     0.000
     In    31      Dzy                  0.999     0.999     0.000
     In    31      Dzx                  0.998     0.998     0.000
     In    31      Dxx-yy               1.000     1.000     0.000
     In    31      Dxy                  0.998     0.998    -0.000
     In    31      S                    0.713     0.711     0.002
     In    31      Px                   0.238     0.236     0.002
     In    31      Py                   0.240     0.240    -0.000
     In    31      Pz                   0.240     0.240    -0.000
     In    31      S                   -0.259    -0.262     0.003
     In    32      Dzz                  1.000     1.000     0.000
     In    32      Dzy                  0.998     0.998    -0.000
     In    32      Dzx                  0.998     0.998     0.000
     In    32      Dxx-yy               1.000     1.000     0.000
     In    32      Dxy                  0.999     0.999     0.000
     In    32      S                    0.713     0.711     0.002
     In    32      Px                   0.240     0.240    -0.000
     In    32      Py                   0.240     0.240    -0.000
     In    32      Pz                   0.238     0.236     0.002
     In    32      S                   -0.259    -0.262     0.003
  ---------------------------------------------------------------
                           Total:     286.051   284.949     1.102
  ---------------------------------------------------------------

     Atomic Populations (Mulliken)
     -----------------------------
Species          Ion Spin      s       p       d       f      Total   Charge(e)   Spin(hbar/2)
==============================================================================================
  P               1   up:     0.902   1.896   0.000   0.000   2.798    -0.560        0.035
                  1   dn:     0.899   1.863   0.000   0.000   2.763
  P               2   up:     0.902   1.896   0.000   0.000   2.798    -0.560        0.035
                  2   dn:     0.899   1.863   0.000   0.000   2.763
  P               3   up:     0.872   1.979   0.000   0.000   2.851    -0.651        0.051
                  3   dn:     0.868   1.931   0.000   0.000   2.800
  P               4   up:     0.869   1.964   0.000   0.000   2.832    -0.666       -0.001
                  4   dn:     0.869   1.965   0.000   0.000   2.834
  P               5   up:     0.872   1.969   0.000   0.000   2.841    -0.653        0.029
                  5   dn:     0.870   1.942   0.000   0.000   2.812
  P               6   up:     0.871   1.962   0.000   0.000   2.832    -0.655        0.010
                  6   dn:     0.870   1.952   0.000   0.000   2.822
  P               7   up:     0.869   1.965   0.000   0.000   2.834    -0.667        0.001
                  7   dn:     0.869   1.964   0.000   0.000   2.833
  P               8   up:     0.871   1.971   0.000   0.000   2.842    -0.657        0.027
                  8   dn:     0.869   1.946   0.000   0.000   2.815
  P               9   up:     0.871   1.971   0.000   0.000   2.842    -0.657        0.027
                  9   dn:     0.869   1.946   0.000   0.000   2.815
  P              10   up:     0.903   1.870   0.000   0.000   2.773    -0.549       -0.004
                 10   dn:     0.903   1.874   0.000   0.000   2.777
  P              11   up:     0.907   1.858   0.000   0.000   2.765    -0.530        0.000
                 11   dn:     0.907   1.858   0.000   0.000   2.765
  P              12   up:     0.870   1.961   0.000   0.000   2.831    -0.663       -0.001
                 12   dn:     0.870   1.962   0.000   0.000   2.832
  P              13   up:     0.875   1.952   0.000   0.000   2.827    -0.649        0.005
                 13   dn:     0.874   1.948   0.000   0.000   2.822
  P              14   up:     0.870   1.963   0.000   0.000   2.833    -0.666       -0.000
                 14   dn:     0.870   1.964   0.000   0.000   2.833
  P              15   up:     0.872   1.971   0.000   0.000   2.843    -0.663        0.024
                 15   dn:     0.870   1.949   0.000   0.000   2.820
  P              16   up:     0.872   1.969   0.000   0.000   2.841    -0.653        0.029
                 16   dn:     0.870   1.942   0.000   0.000   2.812
  P              17   up:     0.869   1.964   0.000   0.000   2.832    -0.666       -0.001
                 17   dn:     0.869   1.965   0.000   0.000   2.834
  P              18   up:     0.871   1.962   0.000   0.000   2.832    -0.655        0.010
                 18   dn:     0.870   1.952   0.000   0.000   2.822
  P              19   up:     0.869   1.965   0.000   0.000   2.834    -0.667        0.001
                 19   dn:     0.869   1.964   0.000   0.000   2.833
  P              20   up:     0.872   1.957   0.000   0.000   2.829    -0.657        0.000
                 20   dn:     0.872   1.956   0.000   0.000   2.828
  P              21   up:     0.872   1.957   0.000   0.000   2.828    -0.657        0.000
                 21   dn:     0.872   1.956   0.000   0.000   2.828
  P              22   up:     0.873   1.967   0.000   0.000   2.840    -0.655        0.024
                 22   dn:     0.871   1.944   0.000   0.000   2.815
  P              23   up:     0.870   1.975   0.000   0.000   2.845    -0.665        0.025
                 23   dn:     0.868   1.953   0.000   0.000   2.820
  P              24   up:     0.875   1.952   0.000   0.000   2.827    -0.649        0.005
                 24   dn:     0.874   1.948   0.000   0.000   2.822
  P              25   up:     0.870   1.961   0.000   0.000   2.831    -0.663       -0.001
                 25   dn:     0.870   1.962   0.000   0.000   2.832
  P              26   up:     0.870   1.963   0.000   0.000   2.833    -0.666       -0.000
                 26   dn:     0.870   1.964   0.000   0.000   2.833
  P              27   up:     0.872   1.971   0.000   0.000   2.843    -0.663        0.024
                 27   dn:     0.870   1.949   0.000   0.000   2.820
  P              28   up:     0.869   1.966   0.000   0.000   2.834    -0.670       -0.001
                 28   dn:     0.869   1.967   0.000   0.000   2.835
  P              29   up:     0.869   1.966   0.000   0.000   2.834    -0.670       -0.001
                 29   dn:     0.869   1.967   0.000   0.000   2.835
  P              30   up:     0.871   1.959   0.000   0.000   2.830    -0.662       -0.001
                 30   dn:     0.871   1.961   0.000   0.000   2.832
  P              31   up:     0.871   1.959   0.000   0.000   2.830    -0.663       -0.003
                 31   dn:     0.871   1.962   0.000   0.000   2.833
  In              1   up:     0.468   0.726   4.995   0.000   6.189     0.623        0.000
                  1   dn:     0.468   0.726   4.995   0.000   6.189
  In              2   up:     0.665   1.054   4.994   0.000   6.713     0.003        0.430
                  2   dn:     0.661   0.627   4.995   0.000   6.284
  In              3   up:     0.458   0.718   4.994   0.000   6.171     0.653       -0.005
                  3   dn:     0.459   0.722   4.994   0.000   6.176
  In              4   up:     0.458   0.718   4.994   0.000   6.171     0.653       -0.005
                  4   dn:     0.459   0.722   4.994   0.000   6.176
  In              5   up:     0.475   0.717   4.995   0.000   6.187     0.635        0.009
                  5   dn:     0.472   0.711   4.995   0.000   6.178
  In              6   up:     0.431   0.723   4.994   0.000   6.149     0.708        0.005
                  6   dn:     0.432   0.718   4.994   0.000   6.143
  In              7   up:     0.439   0.724   4.994   0.000   6.157     0.688        0.002
                  7   dn:     0.439   0.722   4.994   0.000   6.155
  In              8   up:     0.502   0.826   4.992   0.000   6.320     0.438        0.079
                  8   dn:     0.503   0.747   4.992   0.000   6.242
  In              9   up:     0.443   0.728   4.994   0.000   6.166     0.679        0.011
                  9   dn:     0.444   0.717   4.994   0.000   6.155
  In             10   up:     0.474   0.834   4.993   0.000   6.302     0.523        0.127
                 10   dn:     0.459   0.723   4.993   0.000   6.175
  In             11   up:     0.473   0.732   4.994   0.000   6.199     0.610        0.007
                 11   dn:     0.473   0.724   4.994   0.000   6.192
  In             12   up:     0.473   0.732   4.994   0.000   6.199     0.610        0.007
                 12   dn:     0.473   0.724   4.994   0.000   6.192
  In             13   up:     0.426   0.715   4.995   0.000   6.136     0.722       -0.007
                 13   dn:     0.431   0.717   4.994   0.000   6.143
  In             14   up:     0.444   0.723   4.994   0.000   6.161     0.672       -0.006
                 14   dn:     0.450   0.723   4.994   0.000   6.167
  In             15   up:     0.442   0.722   4.995   0.000   6.158     0.687        0.003
                 15   dn:     0.439   0.721   4.995   0.000   6.155
  In             16   up:     0.460   0.726   4.995   0.000   6.180     0.634       -0.006
                 16   dn:     0.464   0.727   4.995   0.000   6.186
  In             17   up:     0.475   0.717   4.995   0.000   6.187     0.635        0.009
                 17   dn:     0.472   0.711   4.995   0.000   6.178
  In             18   up:     0.431   0.723   4.994   0.000   6.149     0.708        0.005
                 18   dn:     0.432   0.718   4.994   0.000   6.143
  In             19   up:     0.502   0.826   4.992   0.000   6.320     0.438        0.079
                 19   dn:     0.503   0.747   4.992   0.000   6.242
  In             20   up:     0.439   0.724   4.994   0.000   6.157     0.688        0.002
                 20   dn:     0.439   0.722   4.994   0.000   6.155
  In             21   up:     0.461   0.716   4.995   0.000   6.172     0.649       -0.007
                 21   dn:     0.465   0.719   4.995   0.000   6.179
  In             22   up:     0.463   0.723   4.995   0.000   6.181     0.639        0.001
                 22   dn:     0.461   0.724   4.995   0.000   6.180
  In             23   up:     0.422   0.717   4.995   0.000   6.134     0.723       -0.009
                 23   dn:     0.429   0.720   4.994   0.000   6.143
  In             24   up:     0.422   0.717   4.995   0.000   6.134     0.723       -0.009
                 24   dn:     0.429   0.720   4.994   0.000   6.143
  In             25   up:     0.426   0.715   4.995   0.000   6.136     0.722       -0.007
                 25   dn:     0.431   0.717   4.994   0.000   6.143
  In             26   up:     0.444   0.723   4.994   0.000   6.161     0.672       -0.006
                 26   dn:     0.450   0.723   4.994   0.000   6.167
  In             27   up:     0.460   0.726   4.995   0.000   6.180     0.634       -0.006
                 27   dn:     0.464   0.727   4.995   0.000   6.186
  In             28   up:     0.442   0.722   4.995   0.000   6.158     0.687        0.003
                 28   dn:     0.439   0.721   4.995   0.000   6.155
  In             29   up:     0.481   0.732   4.995   0.000   6.209     0.611        0.028
                 29   dn:     0.473   0.712   4.995   0.000   6.180
  In             30   up:     0.483   0.720   4.994   0.000   6.198     0.611        0.006
                 30   dn:     0.481   0.716   4.994   0.000   6.192
  In             31   up:     0.454   0.718   4.995   0.000   6.166     0.674        0.007
                 31   dn:     0.450   0.716   4.995   0.000   6.160
  In             32   up:     0.454   0.718   4.995   0.000   6.166     0.674        0.007
                 32   dn:     0.450   0.716   4.995   0.000   6.160
==============================================================================================

                 Bond                   Population        Spin       Length (A)
================================================================================
              P 18 -- In 19                  0.73        -0.01          2.50255
              P 6  -- In 8                   0.73        -0.01          2.50255
              P 5  -- In 8                   0.72        -0.01          2.50988
              P 16 -- In 19                  0.72        -0.01          2.50988
              P 9  -- In 10                  0.71        -0.01          2.52762
              P 8  -- In 10                  0.71        -0.01          2.52762
              P 2  -- In 19                  0.75        -0.01          2.52951
              P 1  -- In 8                   0.75        -0.01          2.52951
              P 10 -- In 12                  0.80        -0.00          2.52970
              P 10 -- In 11                  0.80        -0.00          2.52970
              P 23 -- In 20                  0.67        -0.00          2.52976
              P 23 -- In 7                   0.67        -0.00          2.52976
              P 3  -- In 10                  0.65        -0.02          2.53315
              P 27 -- In 18                  0.67        -0.00          2.53649
              P 15 -- In 6                   0.67        -0.00          2.53649
              P 3  -- In 9                   0.66         0.01          2.53716
              P 10 -- In 1                   0.78        -0.00          2.53871
              P 11 -- In 21                  0.79        -0.00          2.54198
              P 11 -- In 27                  0.76         0.00          2.54200
              P 11 -- In 16                  0.76         0.00          2.54200
              P 23 -- In 9                   0.64        -0.00          2.54351
              P 12 -- In 14                  0.64         0.00          2.54456
              P 25 -- In 26                  0.64         0.00          2.54456
              P 8  -- In 13                  0.68         0.00          2.54637
              P 9  -- In 25                  0.68         0.00          2.54637
              P 7  -- In 25                  0.67        -0.00          2.54771
              P 19 -- In 13                  0.67        -0.00          2.54771
              P 2  -- In 4                   0.75         0.00          2.54780
              P 1  -- In 3                   0.75         0.00          2.54780
              P 29 -- In 30                  0.65        -0.00          2.54784
              P 28 -- In 30                  0.65        -0.00          2.54784
              P 24 -- In 26                  0.64         0.00          2.54804
              P 13 -- In 14                  0.64         0.00          2.54804
              P 29 -- In 32                  0.66        -0.00          2.55019
              P 28 -- In 31                  0.66        -0.00          2.55019
              P 30 -- In 31                  0.68        -0.00          2.55056
              P 30 -- In 32                  0.68        -0.00          2.55056
              P 16 -- In 24                  0.66         0.00          2.55074
              P 5  -- In 23                  0.66         0.00          2.55074
              P 21 -- In 24                  0.68         0.00          2.55193
              P 20 -- In 23                  0.68         0.00          2.55193
              P 18 -- In 20                  0.61         0.00          2.55211
              P 6  -- In 7                   0.61         0.00          2.55211
              P 6  -- In 14                  0.61         0.00          2.55217
              P 18 -- In 26                  0.61         0.00          2.55217
              P 22 -- In 24                  0.66         0.00          2.55252
              P 22 -- In 23                  0.66         0.00          2.55252
              P 21 -- In 7                   0.68         0.00          2.55302
              P 20 -- In 20                  0.68         0.00          2.55302
              P 2  -- In 17                  0.71         0.00          2.55328
              P 1  -- In 5                   0.71         0.00          2.55328
              P 27 -- In 11                  0.62        -0.00          2.55345
              P 15 -- In 12                  0.62        -0.00          2.55346
              P 25 -- In 9                   0.67        -0.00          2.55445
              P 12 -- In 9                   0.67        -0.00          2.55445
              P 14 -- In 15                  0.66        -0.00          2.55555
              P 26 -- In 28                  0.66        -0.00          2.55555
              P 23 -- In 30                  0.61        -0.00          2.55618
              P 4  -- In 7                   0.68        -0.00          2.55648
              P 17 -- In 20                  0.68        -0.00          2.55648
              P 19 -- In 26                  0.62         0.00          2.55705
              P 7  -- In 14                  0.62         0.00          2.55705
              P 28 -- In 25                  0.65         0.00          2.55909
              P 29 -- In 13                  0.65         0.00          2.55909
              P 16 -- In 18                  0.61         0.00          2.55915
              P 5  -- In 6                   0.61         0.00          2.55915
              P 25 -- In 28                  0.65         0.00          2.55942
              P 12 -- In 15                  0.65         0.00          2.55942
              P 31 -- In 28                  0.67        -0.00          2.55944
              P 31 -- In 15                  0.67        -0.00          2.55944
              P 29 -- In 15                  0.65        -0.00          2.55972
              P 28 -- In 28                  0.65        -0.00          2.55972
              P 7  -- In 4                   0.60        -0.00          2.56087
              P 19 -- In 3                   0.60        -0.00          2.56087
              P 17 -- In 18                  0.67        -0.00          2.56108
              P 4  -- In 6                   0.67        -0.00          2.56108
              P 20 -- In 22                  0.61        -0.00          2.56180
              P 21 -- In 22                  0.61        -0.00          2.56180
              P 19 -- In 24                  0.66        -0.00          2.56248
              P 7  -- In 23                  0.66        -0.00          2.56248
              P 27 -- In 5                   0.64        -0.00          2.56249
              P 15 -- In 17                  0.64        -0.00          2.56249
              P 14 -- In 6                   0.67        -0.00          2.56363
              P 26 -- In 18                  0.67        -0.00          2.56363
              P 22 -- In 30                  0.60         0.00          2.56395
              P 4  -- In 4                   0.64         0.00          2.56433
              P 17 -- In 3                   0.64         0.00          2.56433
              P 18 -- In 25                  0.66         0.00          2.56459
              P 6  -- In 13                  0.66         0.00          2.56459
              P 9  -- In 12                  0.59         0.00          2.56517
              P 8  -- In 11                  0.59         0.00          2.56517
              P 31 -- In 22                  0.62        -0.00          2.56533
              P 14 -- In 5                   0.66        -0.00          2.56581
              P 26 -- In 17                  0.66         0.00          2.56581
              P 4  -- In 1                   0.62        -0.00          2.56631
              P 17 -- In 1                   0.62        -0.00          2.56631
              P 9  -- In 27                  0.63         0.00          2.56652
              P 8  -- In 16                  0.63         0.00          2.56652
              P 3  -- In 4                   0.64         0.00          2.56820
              P 3  -- In 3                   0.64         0.00          2.56820
              P 15 -- In 31                  0.64        -0.00          2.56856
              P 27 -- In 32                  0.64        -0.00          2.56856
              P 30 -- In 22                  0.62        -0.00          2.56879
              P 24 -- In 27                  0.61         0.00          2.57088
              P 13 -- In 16                  0.61         0.00          2.57088
              P 25 -- In 11                  0.62        -0.00          2.57170
              P 12 -- In 12                  0.62        -0.00          2.57170
              P 22 -- In 29                  0.65        -0.00          2.57249
              P 13 -- In 31                  0.61        -0.00          2.57487
              P 24 -- In 32                  0.61        -0.00          2.57487
              P 24 -- In 29                  0.68        -0.00          2.57922
              P 13 -- In 29                  0.68        -0.00          2.57922
              P 26 -- In 27                  0.62         0.00          2.58004
              P 14 -- In 16                  0.62         0.00          2.58004
              P 5  -- In 21                  0.62         0.00          2.58303
              P 16 -- In 21                  0.62         0.00          2.58303
              P 31 -- In 1                   0.60        -0.00          2.58462
              P 30 -- In 21                  0.59         0.00          2.58777
              P 21 -- In 5                   0.58         0.00          2.60755
              P 20 -- In 17                  0.58         0.00          2.60755
             In 2  -- In 19                  0.10         0.05          2.77138
             In 2  -- In 8                   0.10         0.05          2.77138
             In 2  -- In 10                 -0.10         0.07          2.82420
================================================================================

 Hirshfeld supercell size:           2           2           2
Standard grid dimensions: 240 240 240
Fine grid dimensions:     240 240 240


     Hirshfeld Analysis
     ------------------
Species   Ion     Hirshfeld Charge (e)  Spin (hbar/2)
===================================================
  P        1                -0.23        0.04
  P        2                -0.23        0.04
  P        3                -0.23        0.05
  P        4                -0.23       -0.00
  P        5                -0.22        0.03
  P        6                -0.23        0.01
  P        7                -0.24        0.00
  P        8                -0.23        0.03
  P        9                -0.23        0.03
  P       10                -0.23       -0.00
  P       11                -0.22        0.00
  P       12                -0.24        0.00
  P       13                -0.23        0.01
  P       14                -0.24        0.00
  P       15                -0.22        0.02
  P       16                -0.22        0.03
  P       17                -0.23       -0.00
  P       18                -0.23        0.01
  P       19                -0.24        0.00
  P       20                -0.24        0.00
  P       21                -0.24        0.00
  P       22                -0.23        0.02
  P       23                -0.23        0.02
  P       24                -0.23        0.01
  P       25                -0.24        0.00
  P       26                -0.24        0.00
  P       27                -0.22        0.02
  P       28                -0.23       -0.00
  P       29                -0.23       -0.00
  P       30                -0.23       -0.00
  P       31                -0.24       -0.00
  In       1                 0.23        0.00
  In       2                 0.10        0.29
  In       3                 0.23        0.00
  In       4                 0.23        0.00
  In       5                 0.24        0.01
  In       6                 0.24        0.01
  In       7                 0.24        0.01
  In       8                 0.18        0.08
  In       9                 0.24        0.01
  In      10                 0.17        0.12
  In      11                 0.22        0.01
  In      12                 0.22        0.01
  In      13                 0.24        0.00
  In      14                 0.23        0.00
  In      15                 0.24        0.00
  In      16                 0.22        0.00
  In      17                 0.24        0.01
  In      18                 0.24        0.01
  In      19                 0.18        0.08
  In      20                 0.24        0.01
  In      21                 0.23        0.00
  In      22                 0.23       -0.00
  In      23                 0.23        0.00
  In      24                 0.23        0.00
  In      25                 0.24        0.00
  In      26                 0.23        0.00
  In      27                 0.22        0.00
  In      28                 0.24        0.00
  In      29                 0.21        0.05
  In      30                 0.24        0.01
  In      31                 0.24        0.00
  In      32                 0.24        0.00
===================================================

 
 A BibTeX formatted list of references used in this run has been written to 
 P_Vacancy_Migration_5->3_Singlepoints_6.bib
 
Initialisation time =     30.20 s
Calculation time    =   9339.50 s
Finalisation time   =    153.14 s
Total time          =   9522.84 s
Peak Memory Use     = 9593556 kB
 
Overall parallel efficiency rating: Terrible (34%)
 
Data was distributed by:-
G-vector (3-way); efficiency rating: Poor (37%)
k-point (36-way); efficiency rating: Very good (83%)
