 +-------------------------------------------------+
 |                                                 |
 |      CCC   AA    SSS  TTTTT  EEEEE  PPPP        |
 |     C     A  A  S       T    E      P   P       |
 |     C     AAAA   SS     T    EEE    PPPP        |
 |     C     A  A     S    T    E      P           |
 |      CCC  A  A  SSS     T    EEEEE  P           |
 |                                                 |
 +-------------------------------------------------+
 |                                                 |
 | Welcome to Academic Release CASTEP version 24.1 |
 | Ab Initio Total Energy Program                  |
 |                                                 |
 | Authors:                                        |
 | M. Segall, M. Probert, C. Pickard, P. Hasnip,   |
 | S. Clark, K. Refson, J. R. Yates,               |
 | A. Bartok-Partay, M. Payne                      |
 |                                                 |
 | Contributors:                                   |
 | P. Lindan, P. Haynes, J. White, V. Milman,      |
 | N. Govind, M. Gibson, P. Tulip, V. Cocula,      |
 | B. Montanari, D. Quigley, M. Glover,            |
 | L. Bernasconi, A. Perlov, M. Plummer,           |
 | E. McNellis, J. Meyer, J. Gale, D. Jochym       |
 | J. Aarons, B. Walker, R. Gillen, D. Jones       |
 | T. Green, I. J. Bush, C. J. Armstrong,          |
 | E. J. Higgins, E. L. Brown, M. S. McFly,        |
 | J. Wilkins, B-C. Shih, P. J. P. Byrne,          |
 | R. J. Maurer, J. C. Womack, J. Dziedzic,        |
 | L. LeBlanc, T. K. Stenczel, J. Kermode,         |
 | S. Sturniolo, B. Shi, B. Durham, M. Evans,      |
 | M. J. Smith, A. Tamerus, Z. Hawkhead,           |
 | V. Ravindran, T. Hollins, S. A. Joyce,          |
 | R. T. Strong, A. M. Reilly, S. J. Donaldson     |
 |                                                 |
 | Copyright (c) 2000 - 2023                       |
 |                                                 |
 |     Distributed under license from Cambridge    |
 |     Enterprise for academic use only.           |
 |                                                 |
 | Please cite                                     |
 |                                                 |
 |     "First principles methods using CASTEP"     |
 |                                                 |
 |         Zeitschrift fuer Kristallographie       |
 |           220(5-6) pp. 567-570 (2005)           |
 |                                                 |
 | S. J. Clark, M. D. Segall, C. J. Pickard,       |
 | P. J. Hasnip, M. J. Probert, K. Refson,         |
 | M. C. Payne                                     |
 |                                                 |
 |       in all publications arising from          |
 |              your use of CASTEP                 |
 |                                                 |
 +-------------------------------------------------+
 |                                                 |
 |              http://www.castep.org              |
 |                                                 |
 +-------------------------------------------------+



 Compiled for  GNU 11.2.0 on 04-04-2024 18:39:17
 from code version 6355fd106 Castep241_branch Thu Mar 7 17:56:19 2024 +0000
 Compiler: GNU Fortran 11.2.0; Optimisation: FAST
 Comms   : MPI VERSION : CRAY MPICH version 8.1.23.14 (ANL base 3.4a2)
 MATHLIBS: default (LAPACK version 3.10.1)
 FFT Lib : fftw3 version commercial-fftw-3.3.10-sse2-avx-avx2-avx2_128
 Fundamental constants values: CODATA 2018

 Run started: Wed, 30 Jul 2025 13:45:28 +0100

 Atomic calculation performed for P: 1s2 2s2 2p6 3s2 3p3

 Converged in 47 iterations to an ae energy of -9309.074 eV

   ============================================================                
   | Pseudopotential Report - Date of generation 30-07-2025   |                
   ------------------------------------------------------------                
   | Element: P Ionic charge:  5.00 Level of theory: RSCAN    |                
   | Atomic Solver: Koelling-Harmon                           |                
   |                                                          |                
   |               Reference Electronic Structure             |                
   |         Orbital         Occupation         Energy        |                
   |            3s              2.000           -0.535        |                
   |            3p              3.000           -0.209        |                
   |                                                          |                
   |                 Pseudopotential Definition               |                
   |        Beta     l      e      Rc     scheme   norm       |                
   |          1      0   -0.535   1.807     qc      0         |                
   |          2      0    0.250   1.807     qc      0         |                
   |          3      1   -0.209   1.807     qc      0         |                
   |          4      1    0.250   1.807     qc      0         |                
   |          5      2    0.000   1.807     qc      0         |                
   |          6      2    0.250   1.807     qc      0         |                
   |         loc     3    0.000   1.807     pn      0         |                
   |                                                          |                
   | Augmentation charge Rinner = 1.263                       |                
   | Partial core correction Rc = 1.263                       |                
   ------------------------------------------------------------                
   | "3|1.8|4|4|5|30:31:32"                                   |                
   ------------------------------------------------------------                
   |      Author: Chris J. Pickard, Cambridge University      |                
   ============================================================                
 Warning: otfg_output_psp cannot write out meta-GGA pseudopotentials presently.

 Atomic calculation performed for In:
 1s2 2s2 2p6 3s2 3p6 3d10 4s2 4p6 4d10 5s2 5p1

 Converged in 84 iterations to an ae energy of -160093.328 eV

   ============================================================                
   | Pseudopotential Report - Date of generation 30-07-2025   |                
   ------------------------------------------------------------                
   | Element: In Ionic charge: 13.00 Level of theory: RSCAN   |                
   | Atomic Solver: Koelling-Harmon                           |                
   |                                                          |                
   |               Reference Electronic Structure             |                
   |         Orbital         Occupation         Energy        |                
   |            4d             10.000           -0.711        |                
   |            5s              2.000           -0.313        |                
   |            5p              1.000           -0.095        |                
   |                                                          |                
   |                 Pseudopotential Definition               |                
   |        Beta     l      e      Rc     scheme   norm       |                
   |          1      0   -0.313   2.501     qc      0         |                
   |          2      0    0.250   2.501     qc      0         |                
   |          3      1   -0.095   2.501     qc      0         |                
   |          4      1    0.250   2.501     qc      0         |                
   |          5      2   -0.711   2.207     qc      0         |                
   |          6      2    0.250   2.207     qc      0         |                
   |         loc     3    0.000   2.501     pn      0         |                
   |                                                          |                
   | Augmentation charge Rinner = 1.504                       |                
   | Partial core correction Rc = 1.504                       |                
   ------------------------------------------------------------                
   | "3|2.5|2.5|1.5|7|8|9|50:51:42U2.2U2.2"                   |                
   ------------------------------------------------------------                
   |      Author: Chris J. Pickard, Cambridge University      |                
   ============================================================                
 Warning: otfg_output_psp cannot write out meta-GGA pseudopotentials presently.

 Pseudo atomic calculation performed for P 3s2 3p3

 Converged in 23 iterations to a total energy of -208.0292 eV

 Pseudo atomic calculation performed for In 4d10 5s2 5p1

 Converged in 42 iterations to a total energy of -1747.4501 eV
 Calculation parallelised over 108 processes.
 Data is distributed by G-vector(3-way) and k-point(36-way)
 Each process may use up to 16 threads.

 ************************************ Title ************************************
 

 ***************************** General Parameters ******************************
  
 output verbosity                               : normal  (1)
 write checkpoint data to                       : P_Vacancy_Migration_5->3_Singlepoints_6.check
 type of calculation                            : single point energy
 stress calculation                             : off
 density difference calculation                 : off
 electron localisation func (ELF) calculation   : off
 Hirshfeld analysis                             : on
 polarisation (Berry phase) analysis            : off
 molecular orbital projected DOS                : off
 deltaSCF calculation                           : off
 unlimited duration calculation
 timing information                             : on
 memory usage estimate                          : on
 write extra output files                       : on
 write final potential to formatted file        : off
 write final density to formatted file          : off
 write BibTeX reference list                    : on
 write OTFG pseudopotential files               : on
 write electrostatic potential file             : on
 write bands file                               : on
 checkpoint writing                             : off
  
 output         length unit                     : A
 output           mass unit                     : amu
 output           time unit                     : ps
 output         charge unit                     : e
 output           spin unit                     : hbar/2
 output         energy unit                     : eV
 output          force unit                     : eV/A
 output       velocity unit                     : A/ps
 output       pressure unit                     : GPa
 output     inv_length unit                     : 1/A
 output      frequency unit                     : cm-1
 output force constant unit                     : eV/A**2
 output         volume unit                     : A**3
 output   IR intensity unit                     : (D/A)**2/amu
 output         dipole unit                     : D
 output         efield unit                     : eV/A/e
 output        entropy unit                     : J/mol/K
 output    efield chi2 unit                     : pm/V
  
 wavefunctions paging                           : none
 random number generator seed                   :  134529149
 data distribution                              : optimal for this architecture
 optimization strategy                          : balance speed and memory

 *********************** Exchange-Correlation Parameters ***********************
  
 using functional                               : RSCAN
 relativistic treatment                         : Koelling-Harmon
 DFT+D: Semi-empirical dispersion correction    : off

 ************************* Pseudopotential Parameters **************************
  
 pseudopotential representation                 : reciprocal space
 <beta|phi> representation                      : reciprocal space
 spin-orbit coupling                            : off

 **************************** Basis Set Parameters *****************************
  
 plane wave basis set cut-off                   :   900.0000   eV
 size of standard grid                          :     2.0000
 size of   fine   gmax                          :    30.7390   1/A
 finite basis set correction                    : none

 **************************** Electronic Parameters ****************************
  
 number of  electrons                           :  571.0    
 net charge of system                           :  0.000    
 net spin   of system                           :  1.000    
 number of  up  spins                           :  286.0    
 number of down spins                           :  285.0    
 treating system as spin-polarized
 number of bands                                :        343

 ********************* Electronic Minimization Parameters **********************
  
 Method: Treating system as metallic with density mixing treatment of electrons,
         and number of  SD  steps               :          1
         and number of  CG  steps               :          4
  
 total energy / atom convergence tol.           : 0.1000E-07   eV
 eigen-energy convergence tolerance             : 0.2203E-08   eV
 max force / atom convergence tol.              : ignored
 convergence tolerance window                   :          3   cycles
 max. number of SCF cycles                      :        100
 number of fixed-spin iterations                :         10
 smearing scheme                                : Gaussian
 smearing width                                 : 0.2000       eV
 Fermi energy convergence tolerance             : 0.2721E-13   eV
 periodic dipole correction                     : NONE

 ************************** Density Mixing Parameters **************************
  
 density-mixing scheme                          : Pulay
 max. length of mixing history                  :         20
 charge density mixing amplitude                : 0.5000    
   spin density mixing amplitude                :  2.000    
 cut-off energy for mixing                      :  900.0       eV

 *********************** Population Analysis Parameters ************************
  
 Population analysis with cutoff                :  3.000       A
 Population analysis output                     : summary and pdos components

 *******************************************************************************
  

                           -------------------------------
                                      Unit Cell
                           -------------------------------
        Real Lattice(A)                      Reciprocal Lattice(1/A)
    11.8016820    -0.0000080    -0.0000080        0.532397442   0.000000361   0.000000361
    -0.0000080    11.8016820    -0.0000080        0.000000361   0.532397442   0.000000361
    -0.0000080    -0.0000080    11.8016820        0.000000361   0.000000361   0.532397442

                       Lattice parameters(A)       Cell Angles
                    a =     11.801682          alpha =   90.000078
                    b =     11.801682          beta  =   90.000078
                    c =     11.801682          gamma =   90.000078

                       Current cell volume =          1643.734705       A**3
                                   density =             2.819410   AMU/A**3
                                           =             4.681741     g/cm^3

                           -------------------------------
                                     Cell Contents
                           -------------------------------
                         Total number of ions in cell =   63
                      Total number of species in cell =    2
                        Max number of any one species =   32

            xxxxxxxxxxxxxxxxxxxxxxxxxxxxxxxxxxxxxxxxxxxxxxxxxxxxxxxxxxxx
            x  Element    Atom        Fractional coordinates of atoms  x
            x            Number           u          v          w      x
            x----------------------------------------------------------x
            x  P            1         0.132593   0.133437   0.376169   x 
            x  P            2         0.376169   0.133437   0.132593   x 
            x  P            3         0.116299   0.374261   0.116299   x 
            x  P            4         0.125091   0.121460   0.877450   x 
            x  P            5         0.377245   0.116397   0.633197   x 
            x  P            6         0.117813   0.382343   0.637713   x 
            x  P            7         0.374072   0.374787   0.872491   x 
            x  P            8         0.124842   0.622776   0.374791   x 
            x  P            9         0.374791   0.622776   0.124842   x 
            x  P           10         0.135714   0.882907   0.135714   x 
            x  P           11         0.360789   0.885172   0.360789   x 
            x  P           12         0.122801   0.628666   0.876110   x 
            x  P           13         0.376333   0.622675   0.619623   x 
            x  P           14         0.126605   0.871972   0.621923   x 
            x  P           15         0.375682   0.868992   0.878884   x 
            x  P           16         0.633197   0.116397   0.377245   x 
            x  P           17         0.877450   0.121460   0.125091   x 
            x  P           18         0.637713   0.382343   0.117813   x 
            x  P           19         0.872491   0.374787   0.374072   x 
            x  P           20         0.623712   0.121103   0.878878   x 
            x  P           21         0.878878   0.121103   0.623712   x 
            x  P           22         0.620707   0.370667   0.620707   x 
            x  P           23         0.870165   0.374316   0.870165   x 
            x  P           24         0.619623   0.622675   0.376333   x 
            x  P           25         0.876110   0.628666   0.122801   x 
            x  P           26         0.621923   0.871972   0.126605   x 
            x  P           27         0.878884   0.868992   0.375682   x 
            x  P           28         0.623674   0.623350   0.873098   x 
            x  P           29         0.873098   0.623350   0.623674   x 
            x  P           30         0.622451   0.876526   0.622451   x 
            x  P           31         0.874397   0.874891   0.874397   x 
            x  In           1         0.004960  -0.007357   0.004960   x 
            x  In           2         0.351396   0.324622   0.351396   x 
            x  In           3         0.000028   0.249277   0.251167   x 
            x  In           4         0.251167   0.249277   0.000028   x 
            x  In           5         0.007891  -0.000503   0.491794   x 
            x  In           6         0.249086  -0.008509   0.755742   x 
            x  In           7        -0.002734   0.246068   0.754703   x 
            x  In           8         0.232646   0.237127   0.534809   x 
            x  In           9        -0.006468   0.500862  -0.006468   x 
            x  In          10         0.237801   0.502810   0.237801   x 
            x  In          11         0.006739   0.752109   0.246012   x 
            x  In          12         0.246012   0.752109   0.006739   x 
            x  In          13        -0.001537   0.498699   0.498149   x 
            x  In          14         0.251476   0.507415   0.752839   x 
            x  In          15        -0.001742   0.750510   0.747030   x 
            x  In          16         0.255002   0.751389   0.492428   x 
            x  In          17         0.491794  -0.000503   0.007891   x 
            x  In          18         0.755742  -0.008509   0.249086   x 
            x  In          19         0.534809   0.237127   0.232646   x 
            x  In          20         0.754703   0.246068  -0.002734   x 
            x  In          21         0.491917  -0.005260   0.491917   x 
            x  In          22         0.748969   0.000495   0.748969   x 
            x  In          23         0.501717   0.246896   0.752093   x 
            x  In          24         0.752093   0.246896   0.501717   x 
            x  In          25         0.498149   0.498699  -0.001537   x 
            x  In          26         0.752840   0.507415   0.251476   x 
            x  In          27         0.492428   0.751389   0.255002   x 
            x  In          28         0.747030   0.750510  -0.001742   x 
            x  In          29         0.490759   0.488028   0.490759   x 
            x  In          30         0.744833   0.498845   0.744833   x 
            x  In          31         0.500664   0.748804   0.747276   x 
            x  In          32         0.747276   0.748804   0.500664   x 
            xxxxxxxxxxxxxxxxxxxxxxxxxxxxxxxxxxxxxxxxxxxxxxxxxxxxxxxxxxxx


                         No user defined ionic velocities

                           -------------------------------
                                   Details of Species
                           -------------------------------

                               Mass of species in AMU
                                    P   30.9737600
                                    In  114.8180000

                          Electric Quadrupole Moment (Barn)
                                    P    1.0000000 No Isotope Defined
                                    In    0.7700000 Isotope115

                          Files used for pseudopotentials:
                                    P 3|1.8|4|4|5|30:31:32
                                    In 3|2.5|2.5|1.5|7|8|9|50:51:42U2.2U2.2

                           -------------------------------
                              k-Points For BZ Sampling
                           -------------------------------
                       MP grid size for SCF calculation is  4  4  4
                            with an offset of   0.125  0.125  0.125
                       Number of kpoints used =            36

                           -------------------------------
                               Symmetry and Constraints
                           -------------------------------

                      Maximum deviation from symmetry =  0.00000         ANG

                      Number of symmetry operations   =           1
                      Number of ionic constraints     =           3
                      Point group of crystal =     1: C1, 1, 1
                      Space group of crystal =     8: Cm, C -2y

             Set iprint > 1 for details on symmetry rotations/translations

                         Centre of mass is constrained
             Set iprint > 1 for details of linear ionic constraints

                         Number of cell constraints= 0
                         Cell constraints are:  1 2 3 4 5 6

                         External pressure/stress (GPa)
                          0.00000   0.00000   0.00000
                                    0.00000   0.00000
                                              0.00000
 
+---------------- MEMORY AND SCRATCH DISK ESTIMATES PER PROCESS --------------+
|                                                     Memory          Disk    |
| Baseline code, static data and system overhead      368.0 MB         0.0 MB |
| BLAS internal memory storage                          0.0 MB         0.0 MB |
| Model and support data                             4302.1 MB         0.0 MB |
| Electronic energy minimisation requirements        1320.9 MB         0.0 MB |
| Force calculation requirements                      127.4 MB         0.0 MB |
|                                               ----------------------------- |
| Approx. total storage required per process         5991.0 MB         0.0 MB |
|                                                                             |
| Requirements will fluctuate during execution and may exceed these estimates |
+-----------------------------------------------------------------------------+
Calculating approximate eigenstates for fixed initial Hamiltonian
Cut-off for approx. calculation is   89.988 eV
Improving approx. states at cut-off of  450.000 eV
Resetting cut-off to  900.000 eV
Calculating total energy with cut-off of  900.000 eV.
------------------------------------------------------------------------ <-- SCF
SCF loop      Energy           Fermi           Energy gain       Timer   <-- SCF
                               energy          per atom          (sec)   <-- SCF
------------------------------------------------------------------------ <-- SCF
Initial  -6.28306699E+004  0.00000000E+000                       431.51  <-- SCF
      1  -6.25832126E+004  2.53742137E+000  -3.92789357E+000     868.97  <-- SCF
      2  -6.25835105E+004  2.53719471E+000   4.72848877E-003    1181.94  <-- SCF
      3  -6.26502120E+004  2.62486995E+000   1.05875335E+000    1535.89  <-- SCF
      4  -6.26622308E+004  2.67170289E+000   1.90774376E-001    2019.31  <-- SCF
      5  -6.26697158E+004  2.77707426E+000   1.18809843E-001    2363.34  <-- SCF
      6  -6.26583997E+004  2.92096000E+000  -1.79620971E-001    2699.49  <-- SCF
      7  -6.26571954E+004  2.96277318E+000  -1.91146170E-002    3058.35  <-- SCF
      8  -6.26568610E+004  2.99208280E+000  -5.30864712E-003    3422.42  <-- SCF
      9  -6.26576454E+004  2.99442283E+000   1.24504464E-002    3769.67  <-- SCF
     10  -6.26581683E+004  3.00096862E+000   8.29993268E-003    4118.77  <-- SCF
     11  -6.26582542E+004  2.99645751E+000   1.36415727E-003    4492.84  <-- SCF
     12  -6.26582764E+004  2.99514544E+000   3.52319236E-004    4855.56  <-- SCF
     13  -6.26582907E+004  2.99249151E+000   2.27151796E-004    5211.07  <-- SCF
     14  -6.26582917E+004  2.99150105E+000   1.63223593E-005    5587.26  <-- SCF
     15  -6.26582921E+004  2.99067504E+000   5.10295904E-006    5954.12  <-- SCF
     16  -6.26582923E+004  2.99029654E+000   3.08037306E-006    6296.77  <-- SCF
     17  -6.26582925E+004  2.98955032E+000   4.55617854E-006    6656.91  <-- SCF
     18  -6.26582927E+004  2.98910558E+000   3.01221283E-006    7008.09  <-- SCF
     19  -6.26582929E+004  2.98859978E+000   2.16303415E-006    7360.85  <-- SCF
     20  -6.26582929E+004  2.98848652E+000   4.62281869E-007    7699.60  <-- SCF
     21  -6.26582929E+004  2.98843638E+000   1.56230128E-007    8011.26  <-- SCF
     22  -6.26582929E+004  2.98843938E+000   5.58063514E-008    8303.29  <-- SCF
     23  -6.26582929E+004  2.98842289E+000   1.72199268E-008    8573.09  <-- SCF
     24  -6.26582929E+004  2.98841443E+000   6.79074404E-009    8820.80  <-- SCF
     25  -6.26582929E+004  2.98841697E+000   2.03331450E-009    9070.12  <-- SCF
------------------------------------------------------------------------ <-- SCF
 
Integrated Spin Density     =     1.06434     hbar/2
Integrated |Spin Density|   =     1.21801     hbar/2
 
Final energy, E             =  -62658.01332540     eV
Final free energy (E-TS)    =  -62658.29290936     eV
(energies not corrected for finite basis set)
 
NB est. 0K energy (E-0.5TS)      =  -62658.15311738     eV
 

 ************************** Forces **************************
 *                                                          *
 *               Cartesian components (eV/A)                *
 * -------------------------------------------------------- *
 *                         x            y            z      *
 *                                                          *
 * P               1      0.25032     -0.16563     -0.30063 *
 * P               2     -0.30064     -0.16563      0.25032 *
 * P               3      0.02012     -0.12450      0.02012 *
 * P               4      0.05174      0.03974     -0.03921 *
 * P               5      0.07027      0.08588     -0.10086 *
 * P               6      0.16427      0.04864     -0.13625 *
 * P               7      0.01805      0.07059     -0.04034 *
 * P               8      0.00408     -0.07937      0.08367 *
 * P               9      0.08367     -0.07936      0.00408 *
 * P              10      0.07876      0.02197      0.07877 *
 * P              11      0.03921     -0.03572      0.03921 *
 * P              12      0.04883     -0.04245     -0.03863 *
 * P              13     -0.13383     -0.12927     -0.05614 *
 * P              14      0.02550     -0.00234      0.01759 *
 * P              15      0.01547      0.03006     -0.05702 *
 * P              16     -0.10085      0.08589      0.07027 *
 * P              17     -0.03922      0.03974      0.05173 *
 * P              18     -0.13625      0.04864      0.16426 *
 * P              19     -0.04034      0.07060      0.01805 *
 * P              20     -0.02765      0.00533     -0.03513 *
 * P              21     -0.03512      0.00533     -0.02765 *
 * P              22     -0.01371     -0.04133     -0.01370 *
 * P              23      0.00583      0.02265      0.00582 *
 * P              24     -0.05613     -0.12927     -0.13383 *
 * P              25     -0.03862     -0.04245      0.04883 *
 * P              26      0.01758     -0.00234      0.02550 *
 * P              27     -0.05702      0.03006      0.01548 *
 * P              28     -0.01947     -0.00358     -0.01223 *
 * P              29     -0.01224     -0.00358     -0.01947 *
 * P              30      0.02065      0.02091      0.02065 *
 * P              31     -0.04647      0.02030     -0.04647 *
 * In              1      0.07146     -0.17808      0.07146 *
 * In              2     -0.17519      0.27226     -0.17518 *
 * In              3      0.07382     -0.04830      0.18466 *
 * In              4      0.18466     -0.04830      0.07382 *
 * In              5     -0.01352      0.11819      0.27840 *
 * In              6     -0.18183     -0.00389     -0.03164 *
 * In              7      0.02325     -0.18022     -0.03528 *
 * In              8     -0.54377     -0.25472      0.20534 *
 * In              9      0.01281      0.18427      0.01282 *
 * In             10     -0.14780      0.14149     -0.14779 *
 * In             11      0.09589      0.12090     -0.33855 *
 * In             12     -0.33854      0.12090      0.09588 *
 * In             13     -0.05921     -0.06477     -0.02342 *
 * In             14     -0.00938     -0.06678      0.08184 *
 * In             15     -0.00606      0.06647      0.08777 *
 * In             16      0.14645      0.25714     -0.07369 *
 * In             17      0.27840      0.11818     -0.01351 *
 * In             18     -0.03164     -0.00389     -0.18184 *
 * In             19      0.20535     -0.25472     -0.54377 *
 * In             20     -0.03529     -0.18023      0.02326 *
 * In             21     -0.15828     -0.26955     -0.15828 *
 * In             22      0.04747     -0.08928      0.04748 *
 * In             23     -0.03075      0.02960      0.16262 *
 * In             24      0.16262      0.02960     -0.03075 *
 * In             25     -0.02342     -0.06477     -0.05922 *
 * In             26      0.08183     -0.06678     -0.00938 *
 * In             27     -0.07369      0.25714      0.14645 *
 * In             28      0.08776      0.06647     -0.00606 *
 * In             29      0.41604      0.26098      0.41605 *
 * In             30      0.00581      0.05699      0.00580 *
 * In             31      0.08524      0.03709     -0.00729 *
 * In             32     -0.00729      0.03709      0.08523 *
 *                                                          *
 ************************************************************

 Pseudo atomic calculation performed for P 3s2 3p3

 Converged in 23 iterations to a total energy of -208.0292 eV

 Pseudo atomic calculation performed for In 4d10 5s2 5p1

 Converged in 42 iterations to a total energy of -1747.4501 eV
Charge spilling parameter for spin component 1 = 0.17%
Charge spilling parameter for spin component 2 = 0.17%

                   Orbital Populations                  
  ---------------------------------------------------------------
     Ion    Atom   Orbital              Up        Down      Spin
  ---------------------------------------------------------------
      P     1      S                    0.901     0.899     0.002
      P     1      Px                   0.615     0.613     0.002
      P     1      Py                   0.638     0.617     0.021
      P     1      Pz                   0.641     0.637     0.005
      P     2      S                    0.901     0.899     0.002
      P     2      Px                   0.641     0.637     0.005
      P     2      Py                   0.638     0.617     0.021
      P     2      Pz                   0.615     0.613     0.002
      P     3      S                    0.872     0.868     0.004
      P     3      Px                   0.659     0.636     0.022
      P     3      Py                   0.662     0.659     0.002
      P     3      Pz                   0.659     0.636     0.022
      P     4      S                    0.869     0.869    -0.000
      P     4      Px                   0.655     0.655    -0.000
      P     4      Py                   0.652     0.653    -0.000
      P     4      Pz                   0.656     0.657    -0.001
      P     5      S                    0.872     0.870     0.002
      P     5      Px                   0.652     0.649     0.003
      P     5      Py                   0.654     0.642     0.012
      P     5      Pz                   0.663     0.650     0.013
      P     6      S                    0.871     0.870     0.001
      P     6      Px                   0.654     0.650     0.005
      P     6      Py                   0.648     0.648    -0.001
      P     6      Pz                   0.659     0.655     0.004
      P     7      S                    0.869     0.869     0.000
      P     7      Px                   0.657     0.657    -0.000
      P     7      Py                   0.652     0.652     0.000
      P     7      Pz                   0.655     0.655     0.000
      P     8      S                    0.871     0.869     0.002
      P     8      Px                   0.659     0.647     0.012
      P     8      Py                   0.657     0.643     0.013
      P     8      Pz                   0.655     0.656    -0.001
      P     9      S                    0.871     0.869     0.002
      P     9      Px                   0.655     0.656    -0.001
      P     9      Py                   0.657     0.643     0.013
      P     9      Pz                   0.659     0.647     0.012
      P    10      S                    0.902     0.903    -0.000
      P    10      Px                   0.620     0.623    -0.003
      P    10      Py                   0.630     0.629     0.000
      P    10      Pz                   0.620     0.623    -0.003
      P    11      S                    0.907     0.907    -0.000
      P    11      Px                   0.619     0.620    -0.001
      P    11      Py                   0.620     0.619     0.001
      P    11      Pz                   0.618     0.620    -0.001
      P    12      S                    0.870     0.870    -0.000
      P    12      Px                   0.652     0.653    -0.001
      P    12      Py                   0.656     0.656     0.000
      P    12      Pz                   0.653     0.653    -0.000
      P    13      S                    0.875     0.874     0.001
      P    13      Px                   0.667     0.665     0.001
      P    13      Py                   0.643     0.643     0.000
      P    13      Pz                   0.641     0.639     0.002
      P    14      S                    0.870     0.870     0.000
      P    14      Px                   0.656     0.656    -0.000
      P    14      Py                   0.655     0.655     0.000
      P    14      Pz                   0.652     0.652    -0.000
      P    15      S                    0.872     0.870     0.002
      P    15      Px                   0.665     0.659     0.007
      P    15      Py                   0.653     0.646     0.008
      P    15      Pz                   0.652     0.645     0.007
      P    16      S                    0.872     0.870     0.002
      P    16      Px                   0.663     0.650     0.013
      P    16      Py                   0.654     0.642     0.012
      P    16      Pz                   0.652     0.649     0.003
      P    17      S                    0.869     0.869    -0.000
      P    17      Px                   0.656     0.657    -0.001
      P    17      Py                   0.652     0.653    -0.000
      P    17      Pz                   0.655     0.655    -0.000
      P    18      S                    0.871     0.870     0.001
      P    18      Px                   0.659     0.655     0.004
      P    18      Py                   0.648     0.648    -0.001
      P    18      Pz                   0.654     0.650     0.005
      P    19      S                    0.869     0.869     0.000
      P    19      Px                   0.655     0.655     0.000
      P    19      Py                   0.652     0.652     0.000
      P    19      Pz                   0.657     0.657    -0.000
      P    20      S                    0.872     0.872     0.000
      P    20      Px                   0.649     0.650    -0.001
      P    20      Py                   0.658     0.658     0.001
      P    20      Pz                   0.649     0.649    -0.000
      P    21      S                    0.872     0.872     0.000
      P    21      Px                   0.649     0.649    -0.000
      P    21      Py                   0.658     0.658     0.001
      P    21      Pz                   0.649     0.650    -0.001
      P    22      S                    0.873     0.871     0.002
      P    22      Px                   0.651     0.641     0.010
      P    22      Py                   0.666     0.662     0.004
      P    22      Pz                   0.651     0.641     0.010
      P    23      S                    0.870     0.868     0.002
      P    23      Px                   0.657     0.649     0.008
      P    23      Py                   0.661     0.655     0.006
      P    23      Pz                   0.657     0.649     0.008
      P    24      S                    0.875     0.874     0.001
      P    24      Px                   0.641     0.639     0.002
      P    24      Py                   0.643     0.643     0.000
      P    24      Pz                   0.667     0.665     0.001
      P    25      S                    0.870     0.870    -0.000
      P    25      Px                   0.653     0.653    -0.000
      P    25      Py                   0.656     0.656     0.000
      P    25      Pz                   0.652     0.653    -0.001
      P    26      S                    0.870     0.870     0.000
      P    26      Px                   0.652     0.652    -0.000
      P    26      Py                   0.655     0.655     0.000
      P    26      Pz                   0.656     0.656    -0.000
      P    27      S                    0.872     0.870     0.002
      P    27      Px                   0.652     0.645     0.007
      P    27      Py                   0.653     0.646     0.008
      P    27      Pz                   0.665     0.659     0.007
      P    28      S                    0.869     0.869    -0.000
      P    28      Px                   0.657     0.658    -0.001
      P    28      Py                   0.655     0.655    -0.000
      P    28      Pz                   0.653     0.654    -0.000
      P    29      S                    0.869     0.869    -0.000
      P    29      Px                   0.653     0.654    -0.000
      P    29      Py                   0.655     0.655    -0.000
      P    29      Pz                   0.657     0.658    -0.001
      P    30      S                    0.871     0.871    -0.000
      P    30      Px                   0.652     0.653    -0.001
      P    30      Py                   0.655     0.655    -0.000
      P    30      Pz                   0.652     0.653    -0.001
      P    31      S                    0.871     0.871     0.000
      P    31      Px                   0.651     0.652    -0.001
      P    31      Py                   0.657     0.658    -0.000
      P    31      Pz                   0.651     0.652    -0.001
     In     1      Dzz                  1.000     1.000     0.000
     In     1      Dzy                  0.999     0.998     0.000
     In     1      Dzx                  0.998     0.998     0.000
     In     1      Dxx-yy               1.000     1.000     0.000
     In     1      Dxy                  0.999     0.998     0.000
     In     1      S                    0.708     0.707     0.001
     In     1      Px                   0.239     0.239     0.000
     In     1      Py                   0.248     0.249    -0.000
     In     1      Pz                   0.239     0.239     0.000
     In     1      S                   -0.240    -0.239    -0.001
     In     2      Dzz                  0.999     0.999    -0.000
     In     2      Dzy                  0.999     0.999    -0.000
     In     2      Dzx                  0.998     0.999    -0.000
     In     2      Dxx-yy               0.999     0.999    -0.000
     In     2      Dxy                  0.999     0.999    -0.000
     In     2      S                    0.775     0.773     0.002
     In     2      Px                   0.380     0.215     0.165
     In     2      Py                   0.289     0.202     0.088
     In     2      Pz                   0.380     0.215     0.165
     In     2      S                   -0.111    -0.112     0.001
     In     3      Dzz                  1.000     1.000    -0.000
     In     3      Dzy                  0.998     0.998     0.000
     In     3      Dzx                  0.998     0.998     0.000
     In     3      Dxx-yy               1.000     1.000    -0.000
     In     3      Dxy                  0.999     0.999     0.000
     In     3      S                    0.709     0.710    -0.001
     In     3      Px                   0.234     0.236    -0.001
     In     3      Py                   0.233     0.234    -0.001
     In     3      Pz                   0.250     0.252    -0.001
     In     3      S                   -0.251    -0.250    -0.000
     In     4      Dzz                  1.000     1.000    -0.000
     In     4      Dzy                  0.999     0.999     0.000
     In     4      Dzx                  0.998     0.998     0.000
     In     4      Dxx-yy               1.000     1.000    -0.000
     In     4      Dxy                  0.998     0.998     0.000
     In     4      S                    0.709     0.710    -0.001
     In     4      Px                   0.250     0.252    -0.001
     In     4      Py                   0.233     0.234    -0.001
     In     4      Pz                   0.234     0.236    -0.001
     In     4      S                   -0.251    -0.250    -0.000
     In     5      Dzz                  1.000     1.000     0.000
     In     5      Dzy                  0.998     0.998     0.000
     In     5      Dzx                  0.999     0.999     0.000
     In     5      Dxx-yy               1.000     1.000     0.000
     In     5      Dxy                  0.999     0.999    -0.000
     In     5      S                    0.714     0.712     0.003
     In     5      Px                   0.234     0.234    -0.000
     In     5      Py                   0.245     0.245    -0.000
     In     5      Pz                   0.238     0.232     0.006
     In     5      S                   -0.239    -0.240     0.001
     In     6      Dzz                  1.000     1.000     0.000
     In     6      Dzy                  0.998     0.998    -0.000
     In     6      Dzx                  0.998     0.998     0.000
     In     6      Dxx-yy               1.000     1.000     0.000
     In     6      Dxy                  0.998     0.998     0.000
     In     6      S                    0.712     0.711     0.001
     In     6      Px                   0.246     0.241     0.005
     In     6      Py                   0.240     0.240     0.000
     In     6      Pz                   0.237     0.236     0.000
     In     6      S                   -0.281    -0.279    -0.002
     In     7      Dzz                  1.000     1.000     0.000
     In     7      Dzy                  0.998     0.998     0.000
     In     7      Dzx                  0.999     0.998     0.000
     In     7      Dxx-yy               1.000     1.000     0.000
     In     7      Dxy                  0.998     0.998     0.000
     In     7      S                    0.709     0.707     0.001
     In     7      Px                   0.240     0.241    -0.000
     In     7      Py                   0.249     0.245     0.003
     In     7      Pz                   0.235     0.236    -0.000
     In     7      S                   -0.270    -0.268    -0.001
     In     8      Dzz                  0.999     0.999     0.000
     In     8      Dzy                  0.998     0.998     0.000
     In     8      Dzx                  0.998     0.998     0.000
     In     8      Dxx-yy               1.000     1.000    -0.000
     In     8      Dxy                  0.998     0.998     0.000
     In     8      S                    0.727     0.722     0.005
     In     8      Px                   0.287     0.256     0.031
     In     8      Py                   0.264     0.235     0.028
     In     8      Pz                   0.272     0.257     0.016
     In     8      S                   -0.224    -0.219    -0.005
     In     9      Dzz                  1.000     1.000     0.000
     In     9      Dzy                  0.998     0.998     0.000
     In     9      Dzx                  0.998     0.998    -0.000
     In     9      Dxx-yy               1.000     1.000     0.000
     In     9      Dxy                  0.998     0.998     0.000
     In     9      S                    0.715     0.713     0.002
     In     9      Px                   0.240     0.239     0.002
     In     9      Py                   0.248     0.240     0.008
     In     9      Pz                   0.240     0.239     0.002
     In     9      S                   -0.271    -0.268    -0.003
     In    10      Dzz                  1.000     1.000    -0.000
     In    10      Dzy                  0.998     0.998     0.000
     In    10      Dzx                  0.998     0.998    -0.000
     In    10      Dxx-yy               0.999     0.999    -0.000
     In    10      Dxy                  0.998     0.998     0.000
     In    10      S                    0.741     0.722     0.019
     In    10      Px                   0.271     0.238     0.034
     In    10      Py                   0.291     0.247     0.044
     In    10      Pz                   0.271     0.238     0.034
     In    10      S                   -0.266    -0.263    -0.003
     In    11      Dzz                  1.000     1.000     0.000
     In    11      Dzy                  0.998     0.998     0.000
     In    11      Dzx                  0.998     0.998     0.000
     In    11      Dxx-yy               1.000     1.000     0.000
     In    11      Dxy                  0.998     0.998    -0.000
     In    11      S                    0.706     0.705     0.002
     In    11      Px                   0.239     0.238     0.001
     In    11      Py                   0.238     0.237     0.001
     In    11      Pz                   0.255     0.249     0.006
     In    11      S                   -0.233    -0.232    -0.002
     In    12      Dzz                  1.000     1.000     0.000
     In    12      Dzy                  0.998     0.998    -0.000
     In    12      Dzx                  0.998     0.998     0.000
     In    12      Dxx-yy               1.000     1.000     0.000
     In    12      Dxy                  0.998     0.998     0.000
     In    12      S                    0.706     0.705     0.002
     In    12      Px                   0.255     0.249     0.006
     In    12      Py                   0.238     0.237     0.001
     In    12      Pz                   0.239     0.238     0.001
     In    12      S                   -0.233    -0.232    -0.002
     In    13      Dzz                  1.000     1.000     0.000
     In    13      Dzy                  0.998     0.998     0.000
     In    13      Dzx                  0.998     0.998     0.000
     In    13      Dxx-yy               1.000     1.000     0.000
     In    13      Dxy                  0.999     0.999     0.000
     In    13      S                    0.709     0.709    -0.000
     In    13      Px                   0.239     0.240    -0.001
     In    13      Py                   0.236     0.236    -0.001
     In    13      Pz                   0.240     0.241    -0.001
     In    13      S                   -0.283    -0.279    -0.004
     In    14      Dzz                  1.000     1.000     0.000
     In    14      Dzy                  0.998     0.998     0.000
     In    14      Dzx                  0.998     0.998     0.000
     In    14      Dxx-yy               1.000     1.000     0.000
     In    14      Dxy                  0.998     0.998    -0.000
     In    14      S                    0.710     0.710    -0.000
     In    14      Px                   0.249     0.249    -0.000
     In    14      Py                   0.238     0.238    -0.000
     In    14      Pz                   0.236     0.236     0.000
     In    14      S                   -0.266    -0.260    -0.005
     In    15      Dzz                  1.000     1.000    -0.000
     In    15      Dzy                  0.998     0.998    -0.000
     In    15      Dzx                  0.998     0.998     0.000
     In    15      Dxx-yy               1.000     1.000     0.000
     In    15      Dxy                  0.998     0.998    -0.000
     In    15      S                    0.709     0.708     0.001
     In    15      Px                   0.241     0.241     0.000
     In    15      Py                   0.240     0.240     0.000
     In    15      Pz                   0.240     0.240     0.000
     In    15      S                   -0.267    -0.269     0.001
     In    16      Dzz                  1.000     1.000     0.000
     In    16      Dzy                  0.998     0.998     0.000
     In    16      Dzx                  0.999     0.999     0.000
     In    16      Dxx-yy               1.000     1.000     0.000
     In    16      Dxy                  0.998     0.999    -0.000
     In    16      S                    0.705     0.706    -0.001
     In    16      Px                   0.246     0.247    -0.001
     In    16      Py                   0.241     0.241    -0.000
     In    16      Pz                   0.239     0.239    -0.000
     In    16      S                   -0.245    -0.241    -0.004
     In    17      Dzz                  1.000     1.000     0.000
     In    17      Dzy                  0.999     0.999     0.000
     In    17      Dzx                  0.999     0.999     0.000
     In    17      Dxx-yy               1.000     1.000     0.000
     In    17      Dxy                  0.998     0.998     0.000
     In    17      S                    0.714     0.712     0.003
     In    17      Px                   0.238     0.232     0.006
     In    17      Py                   0.245     0.245    -0.000
     In    17      Pz                   0.234     0.234    -0.000
     In    17      S                   -0.239    -0.240     0.001
     In    18      Dzz                  1.000     1.000     0.000
     In    18      Dzy                  0.998     0.998     0.000
     In    18      Dzx                  0.998     0.998     0.000
     In    18      Dxx-yy               1.000     1.000     0.000
     In    18      Dxy                  0.998     0.998    -0.000
     In    18      S                    0.712     0.711     0.001
     In    18      Px                   0.237     0.236     0.000
     In    18      Py                   0.240     0.240     0.000
     In    18      Pz                   0.246     0.241     0.005
     In    18      S                   -0.281    -0.279    -0.002
     In    19      Dzz                  1.000     1.000    -0.000
     In    19      Dzy                  0.998     0.998     0.000
     In    19      Dzx                  0.998     0.998     0.000
     In    19      Dxx-yy               0.999     0.999     0.000
     In    19      Dxy                  0.998     0.998     0.000
     In    19      S                    0.727     0.722     0.005
     In    19      Px                   0.272     0.257     0.016
     In    19      Py                   0.264     0.235     0.028
     In    19      Pz                   0.287     0.256     0.031
     In    19      S                   -0.224    -0.219    -0.005
     In    20      Dzz                  1.000     1.000     0.000
     In    20      Dzy                  0.998     0.998     0.000
     In    20      Dzx                  0.999     0.998     0.000
     In    20      Dxx-yy               1.000     1.000     0.000
     In    20      Dxy                  0.998     0.998     0.000
     In    20      S                    0.709     0.707     0.001
     In    20      Px                   0.235     0.236    -0.000
     In    20      Py                   0.249     0.245     0.003
     In    20      Pz                   0.240     0.241    -0.000
     In    20      S                   -0.270    -0.268    -0.001
     In    21      Dzz                  1.000     1.000     0.000
     In    21      Dzy                  0.999     0.999     0.000
     In    21      Dzx                  0.998     0.998    -0.000
     In    21      Dxx-yy               1.000     1.000     0.000
     In    21      Dxy                  0.999     0.999     0.000
     In    21      S                    0.709     0.710    -0.001
     In    21      Px                   0.237     0.238    -0.001
     In    21      Py                   0.241     0.243    -0.002
     In    21      Pz                   0.237     0.238    -0.001
     In    21      S                   -0.248    -0.245    -0.002
     In    22      Dzz                  1.000     1.000     0.000
     In    22      Dzy                  0.998     0.998    -0.000
     In    22      Dzx                  0.998     0.998     0.000
     In    22      Dxx-yy               1.000     1.000     0.000
     In    22      Dxy                  0.998     0.998    -0.000
     In    22      S                    0.710     0.709     0.001
     In    22      Px                   0.240     0.240    -0.000
     In    22      Py                   0.243     0.243    -0.000
     In    22      Pz                   0.240     0.240    -0.000
     In    22      S                   -0.247    -0.248     0.001
     In    23      Dzz                  1.000     1.000     0.000
     In    23      Dzy                  0.998     0.998     0.000
     In    23      Dzx                  0.999     0.999     0.000
     In    23      Dxx-yy               1.000     1.000     0.000
     In    23      Dxy                  0.998     0.998     0.000
     In    23      S                    0.708     0.709    -0.001
     In    23      Px                   0.239     0.240    -0.001
     In    23      Py                   0.241     0.242    -0.001
     In    23      Pz                   0.237     0.237    -0.001
     In    23      S                   -0.286    -0.280    -0.006
     In    24      Dzz                  1.000     1.000     0.000
     In    24      Dzy                  0.998     0.998     0.000
     In    24      Dzx                  0.999     0.999     0.000
     In    24      Dxx-yy               1.000     1.000     0.000
     In    24      Dxy                  0.998     0.998     0.000
     In    24      S                    0.708     0.709    -0.001
     In    24      Px                   0.237     0.237    -0.001
     In    24      Py                   0.241     0.242    -0.001
     In    24      Pz                   0.239     0.240    -0.001
     In    24      S                   -0.286    -0.280    -0.006
     In    25      Dzz                  1.000     1.000     0.000
     In    25      Dzy                  0.999     0.999     0.000
     In    25      Dzx                  0.998     0.998     0.000
     In    25      Dxx-yy               1.000     1.000     0.000
     In    25      Dxy                  0.998     0.998    -0.000
     In    25      S                    0.709     0.709    -0.000
     In    25      Px                   0.240     0.241    -0.001
     In    25      Py                   0.236     0.236    -0.001
     In    25      Pz                   0.239     0.240    -0.001
     In    25      S                   -0.282    -0.279    -0.004
     In    26      Dzz                  1.000     1.000     0.000
     In    26      Dzy                  0.998     0.998     0.000
     In    26      Dzx                  0.998     0.998     0.000
     In    26      Dxx-yy               1.000     1.000     0.000
     In    26      Dxy                  0.998     0.998    -0.000
     In    26      S                    0.710     0.710    -0.000
     In    26      Px                   0.236     0.236     0.000
     In    26      Py                   0.238     0.238    -0.000
     In    26      Pz                   0.249     0.249    -0.000
     In    26      S                   -0.266    -0.260    -0.005
     In    27      Dzz                  1.000     1.000     0.000
     In    27      Dzy                  0.998     0.999    -0.000
     In    27      Dzx                  0.999     0.999     0.000
     In    27      Dxx-yy               1.000     1.000     0.000
     In    27      Dxy                  0.998     0.998     0.000
     In    27      S                    0.705     0.706    -0.001
     In    27      Px                   0.239     0.239    -0.000
     In    27      Py                   0.241     0.241    -0.000
     In    27      Pz                   0.246     0.247    -0.001
     In    27      S                   -0.245    -0.241    -0.004
     In    28      Dzz                  1.000     1.000    -0.000
     In    28      Dzy                  0.998     0.998    -0.000
     In    28      Dzx                  0.998     0.998     0.000
     In    28      Dxx-yy               1.000     1.000     0.000
     In    28      Dxy                  0.998     0.998    -0.000
     In    28      S                    0.709     0.708     0.001
     In    28      Px                   0.240     0.240     0.000
     In    28      Py                   0.240     0.240     0.000
     In    28      Pz                   0.241     0.241     0.000
     In    28      S                   -0.267    -0.269     0.001
     In    29      Dzz                  1.000     1.000     0.000
     In    29      Dzy                  0.999     0.999     0.000
     In    29      Dzx                  0.999     0.999     0.000
     In    29      Dxx-yy               1.000     1.000     0.000
     In    29      Dxy                  0.999     0.999     0.000
     In    29      S                    0.741     0.734     0.007
     In    29      Px                   0.240     0.235     0.006
     In    29      Py                   0.252     0.244     0.009
     In    29      Pz                   0.240     0.235     0.006
     In    29      S                   -0.259    -0.260     0.001
     In    30      Dzz                  1.000     1.000    -0.000
     In    30      Dzy                  0.998     0.998     0.000
     In    30      Dzx                  0.998     0.998     0.000
     In    30      Dxx-yy               1.000     1.000     0.000
     In    30      Dxy                  0.998     0.998     0.000
     In    30      S                    0.709     0.708     0.001
     In    30      Px                   0.239     0.238     0.000
     In    30      Py                   0.243     0.240     0.003
     In    30      Pz                   0.239     0.238     0.000
     In    30      S                   -0.226    -0.226     0.000
     In    31      Dzz                  1.000     1.000     0.000
     In    31      Dzy                  0.999     0.999     0.000
     In    31      Dzx                  0.998     0.998     0.000
     In    31      Dxx-yy               1.000     1.000    -0.000
     In    31      Dxy                  0.998     0.998     0.000
     In    31      S                    0.713     0.711     0.002
     In    31      Px                   0.238     0.236     0.002
     In    31      Py                   0.240     0.240    -0.000
     In    31      Pz                   0.240     0.240    -0.000
     In    31      S                   -0.259    -0.261     0.002
     In    32      Dzz                  1.000     1.000     0.000
     In    32      Dzy                  0.998     0.998     0.000
     In    32      Dzx                  0.998     0.998     0.000
     In    32      Dxx-yy               1.000     1.000    -0.000
     In    32      Dxy                  0.999     0.999     0.000
     In    32      S                    0.713     0.711     0.002
     In    32      Px                   0.240     0.240    -0.000
     In    32      Py                   0.240     0.240    -0.000
     In    32      Pz                   0.238     0.236     0.002
     In    32      S                   -0.259    -0.261     0.002
  ---------------------------------------------------------------
                           Total:     286.032   284.968     1.064
  ---------------------------------------------------------------

     Atomic Populations (Mulliken)
     -----------------------------
Species          Ion Spin      s       p       d       f      Total   Charge(e)   Spin(hbar/2)
==============================================================================================
  P               1   up:     0.901   1.894   0.000   0.000   2.796    -0.561        0.030
                  1   dn:     0.899   1.866   0.000   0.000   2.765
  P               2   up:     0.901   1.894   0.000   0.000   2.796    -0.561        0.030
                  2   dn:     0.899   1.866   0.000   0.000   2.765
  P               3   up:     0.872   1.979   0.000   0.000   2.851    -0.651        0.051
                  3   dn:     0.868   1.932   0.000   0.000   2.800
  P               4   up:     0.869   1.964   0.000   0.000   2.832    -0.666       -0.001
                  4   dn:     0.869   1.965   0.000   0.000   2.834
  P               5   up:     0.872   1.969   0.000   0.000   2.841    -0.652        0.029
                  5   dn:     0.870   1.942   0.000   0.000   2.812
  P               6   up:     0.871   1.961   0.000   0.000   2.832    -0.654        0.009
                  6   dn:     0.870   1.952   0.000   0.000   2.823
  P               7   up:     0.869   1.965   0.000   0.000   2.834    -0.667        0.000
                  7   dn:     0.869   1.964   0.000   0.000   2.833
  P               8   up:     0.871   1.971   0.000   0.000   2.842    -0.657        0.027
                  8   dn:     0.869   1.946   0.000   0.000   2.815
  P               9   up:     0.871   1.971   0.000   0.000   2.842    -0.657        0.027
                  9   dn:     0.869   1.946   0.000   0.000   2.815
  P              10   up:     0.902   1.870   0.000   0.000   2.772    -0.550       -0.006
                 10   dn:     0.903   1.876   0.000   0.000   2.778
  P              11   up:     0.907   1.857   0.000   0.000   2.764    -0.529       -0.002
                 11   dn:     0.907   1.858   0.000   0.000   2.766
  P              12   up:     0.870   1.961   0.000   0.000   2.831    -0.663       -0.001
                 12   dn:     0.870   1.962   0.000   0.000   2.832
  P              13   up:     0.875   1.951   0.000   0.000   2.826    -0.648        0.004
                 13   dn:     0.874   1.948   0.000   0.000   2.822
  P              14   up:     0.870   1.963   0.000   0.000   2.833    -0.666       -0.000
                 14   dn:     0.870   1.963   0.000   0.000   2.833
  P              15   up:     0.872   1.971   0.000   0.000   2.843    -0.663        0.023
                 15   dn:     0.870   1.950   0.000   0.000   2.820
  P              16   up:     0.872   1.969   0.000   0.000   2.841    -0.652        0.029
                 16   dn:     0.870   1.942   0.000   0.000   2.812
  P              17   up:     0.869   1.964   0.000   0.000   2.832    -0.666       -0.001
                 17   dn:     0.869   1.965   0.000   0.000   2.834
  P              18   up:     0.871   1.961   0.000   0.000   2.832    -0.654        0.009
                 18   dn:     0.870   1.952   0.000   0.000   2.823
  P              19   up:     0.869   1.965   0.000   0.000   2.834    -0.667        0.000
                 19   dn:     0.869   1.964   0.000   0.000   2.833
  P              20   up:     0.872   1.956   0.000   0.000   2.828    -0.656        0.000
                 20   dn:     0.872   1.956   0.000   0.000   2.828
  P              21   up:     0.872   1.956   0.000   0.000   2.828    -0.656        0.000
                 21   dn:     0.872   1.956   0.000   0.000   2.828
  P              22   up:     0.873   1.967   0.000   0.000   2.840    -0.654        0.025
                 22   dn:     0.871   1.943   0.000   0.000   2.815
  P              23   up:     0.870   1.975   0.000   0.000   2.845    -0.665        0.024
                 23   dn:     0.868   1.953   0.000   0.000   2.820
  P              24   up:     0.875   1.951   0.000   0.000   2.826    -0.648        0.004
                 24   dn:     0.874   1.948   0.000   0.000   2.822
  P              25   up:     0.870   1.961   0.000   0.000   2.831    -0.663       -0.001
                 25   dn:     0.870   1.962   0.000   0.000   2.832
  P              26   up:     0.870   1.963   0.000   0.000   2.833    -0.666       -0.000
                 26   dn:     0.870   1.963   0.000   0.000   2.833
  P              27   up:     0.872   1.971   0.000   0.000   2.843    -0.663        0.023
                 27   dn:     0.870   1.950   0.000   0.000   2.820
  P              28   up:     0.869   1.966   0.000   0.000   2.834    -0.670       -0.001
                 28   dn:     0.869   1.967   0.000   0.000   2.835
  P              29   up:     0.869   1.966   0.000   0.000   2.834    -0.670       -0.001
                 29   dn:     0.869   1.967   0.000   0.000   2.835
  P              30   up:     0.871   1.959   0.000   0.000   2.830    -0.662       -0.001
                 30   dn:     0.871   1.961   0.000   0.000   2.832
  P              31   up:     0.871   1.959   0.000   0.000   2.830    -0.663       -0.003
                 31   dn:     0.871   1.962   0.000   0.000   2.833
  In              1   up:     0.468   0.726   4.995   0.000   6.189     0.622        0.000
                  1   dn:     0.468   0.726   4.995   0.000   6.189
  In              2   up:     0.664   1.049   4.994   0.000   6.708     0.005        0.420
                  2   dn:     0.661   0.632   4.995   0.000   6.288
  In              3   up:     0.458   0.718   4.994   0.000   6.171     0.654       -0.005
                  3   dn:     0.459   0.721   4.994   0.000   6.175
  In              4   up:     0.458   0.718   4.994   0.000   6.171     0.654       -0.005
                  4   dn:     0.459   0.722   4.994   0.000   6.175
  In              5   up:     0.476   0.717   4.995   0.000   6.187     0.635        0.009
                  5   dn:     0.472   0.711   4.995   0.000   6.178
  In              6   up:     0.431   0.723   4.994   0.000   6.149     0.707        0.005
                  6   dn:     0.432   0.718   4.994   0.000   6.144
  In              7   up:     0.439   0.724   4.994   0.000   6.158     0.687        0.002
                  7   dn:     0.439   0.722   4.994   0.000   6.155
  In              8   up:     0.503   0.823   4.992   0.000   6.318     0.439        0.076
                  8   dn:     0.503   0.748   4.992   0.000   6.243
  In              9   up:     0.444   0.728   4.994   0.000   6.166     0.679        0.010
                  9   dn:     0.445   0.717   4.994   0.000   6.156
  In             10   up:     0.475   0.833   4.993   0.000   6.302     0.524        0.127
                 10   dn:     0.459   0.722   4.993   0.000   6.174
  In             11   up:     0.473   0.732   4.994   0.000   6.199     0.610        0.007
                 11   dn:     0.473   0.724   4.994   0.000   6.192
  In             12   up:     0.473   0.732   4.994   0.000   6.199     0.610        0.007
                 12   dn:     0.473   0.724   4.994   0.000   6.191
  In             13   up:     0.426   0.715   4.995   0.000   6.136     0.722       -0.007
                 13   dn:     0.431   0.717   4.994   0.000   6.143
  In             14   up:     0.444   0.723   4.994   0.000   6.161     0.672       -0.006
                 14   dn:     0.450   0.723   4.994   0.000   6.167
  In             15   up:     0.442   0.722   4.995   0.000   6.158     0.686        0.003
                 15   dn:     0.439   0.721   4.995   0.000   6.155
  In             16   up:     0.460   0.726   4.995   0.000   6.180     0.634       -0.006
                 16   dn:     0.464   0.727   4.995   0.000   6.186
  In             17   up:     0.476   0.717   4.995   0.000   6.187     0.635        0.009
                 17   dn:     0.472   0.711   4.995   0.000   6.178
  In             18   up:     0.431   0.723   4.994   0.000   6.149     0.707        0.005
                 18   dn:     0.432   0.718   4.994   0.000   6.144
  In             19   up:     0.503   0.823   4.992   0.000   6.318     0.439        0.076
                 19   dn:     0.503   0.748   4.992   0.000   6.243
  In             20   up:     0.439   0.724   4.994   0.000   6.158     0.687        0.002
                 20   dn:     0.439   0.722   4.994   0.000   6.155
  In             21   up:     0.462   0.716   4.995   0.000   6.172     0.649       -0.007
                 21   dn:     0.465   0.719   4.995   0.000   6.179
  In             22   up:     0.463   0.723   4.995   0.000   6.181     0.639        0.001
                 22   dn:     0.461   0.724   4.995   0.000   6.180
  In             23   up:     0.422   0.717   4.995   0.000   6.134     0.723       -0.009
                 23   dn:     0.428   0.720   4.994   0.000   6.143
  In             24   up:     0.422   0.717   4.994   0.000   6.134     0.723       -0.009
                 24   dn:     0.428   0.720   4.994   0.000   6.143
  In             25   up:     0.426   0.715   4.995   0.000   6.136     0.722       -0.007
                 25   dn:     0.431   0.717   4.994   0.000   6.142
  In             26   up:     0.444   0.723   4.994   0.000   6.161     0.672       -0.006
                 26   dn:     0.450   0.723   4.994   0.000   6.167
  In             27   up:     0.460   0.726   4.995   0.000   6.180     0.634       -0.006
                 27   dn:     0.464   0.727   4.995   0.000   6.186
  In             28   up:     0.442   0.722   4.995   0.000   6.158     0.686        0.003
                 28   dn:     0.439   0.721   4.995   0.000   6.155
  In             29   up:     0.482   0.733   4.995   0.000   6.210     0.606        0.027
                 29   dn:     0.474   0.714   4.995   0.000   6.183
  In             30   up:     0.483   0.720   4.995   0.000   6.197     0.611        0.006
                 30   dn:     0.481   0.716   4.994   0.000   6.192
  In             31   up:     0.454   0.718   4.995   0.000   6.166     0.674        0.006
                 31   dn:     0.450   0.716   4.995   0.000   6.160
  In             32   up:     0.454   0.718   4.995   0.000   6.166     0.674        0.006
                 32   dn:     0.450   0.716   4.995   0.000   6.160
==============================================================================================

                 Bond                   Population        Spin       Length (A)
================================================================================
              P 18 -- In 19                  0.74        -0.01          2.49972
              P 6  -- In 8                   0.74        -0.01          2.49972
              P 5  -- In 8                   0.72        -0.01          2.50810
              P 16 -- In 19                  0.72        -0.01          2.50810
              P 10 -- In 12                  0.80        -0.00          2.52866
              P 10 -- In 11                  0.80        -0.00          2.52866
              P 9  -- In 10                  0.71        -0.01          2.52892
              P 8  -- In 10                  0.71        -0.01          2.52892
              P 2  -- In 19                  0.75        -0.00          2.52922
              P 1  -- In 8                   0.75        -0.00          2.52922
              P 23 -- In 20                  0.67        -0.00          2.52935
              P 23 -- In 7                   0.67        -0.00          2.52935
              P 3  -- In 10                  0.65        -0.02          2.53255
              P 3  -- In 9                   0.66         0.01          2.53589
              P 27 -- In 18                  0.67        -0.00          2.53658
              P 15 -- In 6                   0.67        -0.00          2.53658
              P 10 -- In 1                   0.79        -0.00          2.53765
              P 11 -- In 21                  0.79        -0.00          2.54200
              P 11 -- In 27                  0.76         0.00          2.54264
              P 11 -- In 16                  0.76         0.00          2.54264
              P 23 -- In 9                   0.64        -0.00          2.54361
              P 25 -- In 26                  0.64         0.00          2.54366
              P 12 -- In 14                  0.64         0.00          2.54366
              P 9  -- In 25                  0.68         0.00          2.54719
              P 8  -- In 13                  0.68         0.00          2.54719
              P 1  -- In 3                   0.75         0.00          2.54812
              P 2  -- In 4                   0.75         0.00          2.54812
              P 19 -- In 13                  0.67        -0.00          2.54813
              P 7  -- In 25                  0.67        -0.00          2.54813
              P 13 -- In 14                  0.64         0.00          2.54820
              P 24 -- In 26                  0.64         0.00          2.54820
              P 28 -- In 30                  0.65        -0.00          2.54853
              P 29 -- In 30                  0.65        -0.00          2.54854
              P 16 -- In 24                  0.66         0.00          2.54925
              P 5  -- In 23                  0.66         0.00          2.54925
              P 29 -- In 32                  0.66        -0.00          2.55040
              P 28 -- In 31                  0.66        -0.00          2.55040
              P 30 -- In 32                  0.68        -0.00          2.55108
              P 30 -- In 31                  0.68        -0.00          2.55108
              P 22 -- In 24                  0.66         0.00          2.55147
              P 22 -- In 23                  0.66         0.00          2.55147
              P 18 -- In 26                  0.61         0.00          2.55208
              P 6  -- In 14                  0.61         0.00          2.55208
              P 21 -- In 24                  0.68         0.00          2.55258
              P 20 -- In 23                  0.68         0.00          2.55258
              P 6  -- In 7                   0.61         0.00          2.55281
              P 18 -- In 20                  0.61         0.00          2.55281
              P 21 -- In 7                   0.68         0.00          2.55284
              P 20 -- In 20                  0.68         0.00          2.55284
              P 27 -- In 11                  0.62        -0.00          2.55372
              P 15 -- In 12                  0.62        -0.00          2.55372
              P 12 -- In 9                   0.67        -0.00          2.55398
              P 25 -- In 9                   0.67        -0.00          2.55398
              P 2  -- In 17                  0.70         0.00          2.55472
              P 1  -- In 5                   0.70         0.00          2.55472
              P 26 -- In 28                  0.66        -0.00          2.55521
              P 14 -- In 15                  0.66        -0.00          2.55521
              P 23 -- In 30                  0.61        -0.00          2.55647
              P 4  -- In 7                   0.68        -0.00          2.55672
              P 17 -- In 20                  0.68        -0.00          2.55672
              P 19 -- In 26                  0.62         0.00          2.55682
              P 7  -- In 14                  0.62         0.00          2.55682
              P 29 -- In 13                  0.65         0.00          2.55884
              P 28 -- In 25                  0.65         0.00          2.55884
              P 25 -- In 28                  0.65         0.00          2.55905
              P 12 -- In 15                  0.65         0.00          2.55905
              P 31 -- In 28                  0.67        -0.00          2.55948
              P 31 -- In 15                  0.67        -0.00          2.55948
              P 16 -- In 18                  0.61         0.00          2.55972
              P 5  -- In 6                   0.61         0.00          2.55972
              P 29 -- In 15                  0.65        -0.00          2.55994
              P 28 -- In 28                  0.65        -0.00          2.55994
              P 17 -- In 18                  0.67         0.00          2.56071
              P 4  -- In 6                   0.67         0.00          2.56071
              P 21 -- In 22                  0.61        -0.00          2.56159
              P 20 -- In 22                  0.61        -0.00          2.56159
              P 19 -- In 3                   0.60        -0.00          2.56191
              P 7  -- In 4                   0.60        -0.00          2.56191
              P 19 -- In 24                  0.66        -0.00          2.56249
              P 7  -- In 23                  0.66        -0.00          2.56249
              P 27 -- In 5                   0.64        -0.00          2.56279
              P 15 -- In 17                  0.64        -0.00          2.56279
              P 26 -- In 18                  0.67        -0.00          2.56382
              P 14 -- In 6                   0.67        -0.00          2.56382
              P 31 -- In 22                  0.62        -0.00          2.56508
              P 22 -- In 30                  0.60         0.00          2.56517
              P 17 -- In 3                   0.64         0.00          2.56556
              P 4  -- In 4                   0.64         0.00          2.56556
              P 9  -- In 12                  0.59         0.00          2.56559
              P 8  -- In 11                  0.59         0.00          2.56559
              P 6  -- In 13                  0.66         0.00          2.56563
              P 18 -- In 25                  0.66         0.00          2.56563
              P 17 -- In 1                   0.62        -0.00          2.56626
              P 4  -- In 1                   0.62        -0.00          2.56626
              P 14 -- In 5                   0.65        -0.00          2.56640
              P 26 -- In 17                  0.65        -0.00          2.56641
              P 9  -- In 27                  0.63         0.00          2.56728
              P 8  -- In 16                  0.63         0.00          2.56728
              P 3  -- In 4                   0.64         0.00          2.56750
              P 3  -- In 3                   0.64         0.00          2.56750
              P 30 -- In 22                  0.62        -0.00          2.56892
              P 27 -- In 32                  0.64        -0.00          2.56904
              P 15 -- In 31                  0.64        -0.00          2.56904
              P 13 -- In 16                  0.61         0.00          2.57123
              P 24 -- In 27                  0.61         0.00          2.57123
              P 25 -- In 11                  0.62        -0.00          2.57166
              P 12 -- In 12                  0.62        -0.00          2.57166
              P 22 -- In 29                  0.65        -0.00          2.57338
              P 13 -- In 31                  0.61        -0.00          2.57650
              P 24 -- In 32                  0.61        -0.00          2.57650
              P 14 -- In 16                  0.62         0.00          2.58009
              P 26 -- In 27                  0.62         0.00          2.58009
              P 24 -- In 29                  0.68        -0.00          2.58101
              P 13 -- In 29                  0.68        -0.00          2.58101
              P 5  -- In 21                  0.62         0.00          2.58320
              P 16 -- In 21                  0.62         0.00          2.58320
              P 31 -- In 1                   0.60        -0.00          2.58450
              P 30 -- In 21                  0.59         0.00          2.58705
              P 20 -- In 17                  0.58         0.00          2.60800
              P 21 -- In 5                   0.58         0.00          2.60800
             In 2  -- In 19                  0.09         0.05          2.77772
             In 2  -- In 8                   0.09         0.05          2.77772
             In 2  -- In 10                 -0.11         0.07          2.83138
================================================================================

 Hirshfeld supercell size:           2           2           2
Standard grid dimensions: 240 240 240
Fine grid dimensions:     240 240 240


     Hirshfeld Analysis
     ------------------
Species   Ion     Hirshfeld Charge (e)  Spin (hbar/2)
===================================================
  P        1                -0.23        0.03
  P        2                -0.23        0.03
  P        3                -0.23        0.05
  P        4                -0.23       -0.00
  P        5                -0.22        0.03
  P        6                -0.23        0.01
  P        7                -0.24        0.00
  P        8                -0.23        0.03
  P        9                -0.23        0.03
  P       10                -0.23       -0.00
  P       11                -0.22       -0.00
  P       12                -0.24        0.00
  P       13                -0.23        0.01
  P       14                -0.24        0.00
  P       15                -0.22        0.02
  P       16                -0.22        0.03
  P       17                -0.23       -0.00
  P       18                -0.23        0.01
  P       19                -0.24        0.00
  P       20                -0.24        0.00
  P       21                -0.24        0.00
  P       22                -0.23        0.02
  P       23                -0.23        0.02
  P       24                -0.23        0.01
  P       25                -0.24        0.00
  P       26                -0.24        0.00
  P       27                -0.22        0.02
  P       28                -0.23       -0.00
  P       29                -0.23       -0.00
  P       30                -0.23       -0.00
  P       31                -0.24       -0.00
  In       1                 0.23        0.00
  In       2                 0.10        0.28
  In       3                 0.23        0.00
  In       4                 0.23        0.00
  In       5                 0.24        0.01
  In       6                 0.24        0.01
  In       7                 0.24        0.01
  In       8                 0.18        0.08
  In       9                 0.24        0.01
  In      10                 0.17        0.12
  In      11                 0.22        0.01
  In      12                 0.22        0.01
  In      13                 0.24        0.00
  In      14                 0.23        0.00
  In      15                 0.24        0.00
  In      16                 0.22        0.00
  In      17                 0.24        0.01
  In      18                 0.24        0.01
  In      19                 0.18        0.08
  In      20                 0.24        0.01
  In      21                 0.23        0.00
  In      22                 0.23       -0.00
  In      23                 0.23        0.00
  In      24                 0.23        0.00
  In      25                 0.24        0.00
  In      26                 0.23        0.00
  In      27                 0.22        0.00
  In      28                 0.24        0.00
  In      29                 0.20        0.05
  In      30                 0.24        0.01
  In      31                 0.24        0.00
  In      32                 0.24        0.00
===================================================

 
 A BibTeX formatted list of references used in this run has been written to 
 P_Vacancy_Migration_5->3_Singlepoints_6.bib
 
Initialisation time =     30.93 s
Calculation time    =   9304.67 s
Finalisation time   =    159.37 s
Total time          =   9494.97 s
Peak Memory Use     = 9575180 kB
 
Overall parallel efficiency rating: Terrible (34%)
 
Data was distributed by:-
G-vector (3-way); efficiency rating: Poor (37%)
k-point (36-way); efficiency rating: Very good (80%)
