 +-------------------------------------------------+
 |                                                 |
 |      CCC   AA    SSS  TTTTT  EEEEE  PPPP        |
 |     C     A  A  S       T    E      P   P       |
 |     C     AAAA   SS     T    EEE    PPPP        |
 |     C     A  A     S    T    E      P           |
 |      CCC  A  A  SSS     T    EEEEE  P           |
 |                                                 |
 +-------------------------------------------------+
 |                                                 |
 | Welcome to Academic Release CASTEP version 20.11|          
 | Ab Initio Total Energy Program                  |
 |                                                 |
 | Authors:                                        |
 | M. Segall, M. Probert, C. Pickard, P. Hasnip,   |
 | S. Clark, K. Refson, J. R. Yates, M. Payne      |
 |                                                 |
 | Contributors:                                   |
 | P. Lindan, P. Haynes, J. White, V. Milman,      |
 | N. Govind, M. Gibson, P. Tulip, V. Cocula,      |
 | B. Montanari, D. Quigley, M. Glover,            |
 | L. Bernasconi, A. Perlov, M. Plummer,           |
 | E. McNellis, J. Meyer, J. Gale, D. Jochym       |
 | J. Aarons, B. Walker, R. Gillen, D. Jones       |
 | T. Green, I. J. Bush, C. J. Armstrong,          |
 | E. J. Higgins, E. L. Brown, M. S. McFly,        |
 | J. Wilkins, B-C. Shih, P. J. P. Byrne,          |
 | R. J. Maurer, J. C. Womack, J. Dziedzic,        |
 | J. R. Kermode, A. Bartok-Partay                 |
 |                                                 |
 | Copyright (c) 2000 - 2020                       |
 |                                                 |
 |     Distributed under license from Cambridge    |
 |     Enterprise for academic use only.           |
 |                                                 |
 | Please cite                                     |
 |                                                 |
 |     "First principles methods using CASTEP"     |
 |                                                 |
 |         Zeitschrift fuer Kristallographie       |
 |           220(5-6) pp. 567-570 (2005)           |
 |                                                 |
 | S. J. Clark, M. D. Segall, C. J. Pickard,       |
 | P. J. Hasnip, M. J. Probert, K. Refson,         |
 | M. C. Payne                                     |
 |                                                 |
 |       in all publications arising from          |
 |              your use of CASTEP                 |
 |                                                 |
 +-------------------------------------------------+
 |                                                 |
 |              http://www.castep.org              |
 |                                                 |
 +-------------------------------------------------+
 
 
 
 Compiled for linux_x86_64_ifort on Wed, 25 Aug 2021 18:50:38 +0100
 from code version e772bf432+  HEAD  Sat Apr 3 17:41:32 2021 +0100
 Compiler: Intel Fortran 19.0.5.281; Optimisation: fast
 MATHLIBS: Intel MKL(2019.0.5) (LAPACK version 3.7.0)
 FFT Lib : mkl
 Fundamental constants values: CODATA 2014
 
 Run started: Fri, 16 Dec 2022 18:50:51 +0000
 
 Atomic calculation performed for P: 1s2 2s2 2p6 3s2 3p3
 
 Exceeded max iterations: converged to -0.000003405 eV
 The ae energy is -9309.074 eV
 
   ============================================================                
   | Pseudopotential Report - Date of generation 16-12-2022   |                
   ------------------------------------------------------------                
   | Element: P Ionic charge:  5.00 Level of theory: RSCAN    |                
   | Atomic Solver: Koelling-Harmon                           |                
   |                                                          |                
   |               Reference Electronic Structure             |                
   |         Orbital         Occupation         Energy        |                
   |            3s              2.000           -0.535        |                
   |            3p              3.000           -0.209        |                
   |                                                          |                
   |                 Pseudopotential Definition               |                
   |        Beta     l      e      Rc     scheme   norm       |                
   |          1      0   -0.535   1.807     qc      0         |                
   |          2      0    0.250   1.807     qc      0         |                
   |          3      1   -0.209   1.807     qc      0         |                
   |          4      1    0.250   1.807     qc      0         |                
   |          5      2    0.000   1.807     qc      0         |                
   |          6      2    0.250   1.807     qc      0         |                
   |         loc     3    0.000   1.807     pn      0         |                
   |                                                          |                
   | Augmentation charge Rinner = 1.263                       |                
   | Partial core correction Rc = 1.263                       |                
   ------------------------------------------------------------                
   | "3|1.8|4|4|5|30:31:32"                                   |                
   ------------------------------------------------------------                
   |      Author: Chris J. Pickard, Cambridge University      |                
   ============================================================                
 Warning: ion_atom_output_psp cannot write out meta-GGA pseudopotentials present
 ly.
 
 Atomic calculation performed for In:
 1s2 2s2 2p6 3s2 3p6 3d10 4s2 4p6 4d10 5s2 5p1
 
 Exceeded max iterations: converged to -0.000725459 eV
 The ae energy is -160093.321 eV
 
   ============================================================                
   | Pseudopotential Report - Date of generation 16-12-2022   |                
   ------------------------------------------------------------                
   | Element: In Ionic charge: 13.00 Level of theory: RSCAN   |                
   | Atomic Solver: Koelling-Harmon                           |                
   |                                                          |                
   |               Reference Electronic Structure             |                
   |         Orbital         Occupation         Energy        |                
   |            4d             10.000           -0.711        |                
   |            5s              2.000           -0.313        |                
   |            5p              1.000           -0.095        |                
   |                                                          |                
   |                 Pseudopotential Definition               |                
   |        Beta     l      e      Rc     scheme   norm       |                
   |          1      0   -0.313   2.501     qc      0         |                
   |          2      0    0.250   2.501     qc      0         |                
   |          3      1   -0.095   2.501     qc      0         |                
   |          4      1    0.250   2.501     qc      0         |                
   |          5      2   -0.711   2.207     qc      0         |                
   |          6      2    0.250   2.207     qc      0         |                
   |         loc     3    0.000   2.501     pn      0         |                
   |                                                          |                
   | Augmentation charge Rinner = 1.504                       |                
   | Partial core correction Rc = 1.504                       |                
   ------------------------------------------------------------                
   | "3|2.5|2.5|1.5|7|8|9|50:51:42U2.2U2.2"                   |                
   ------------------------------------------------------------                
   |      Author: Chris J. Pickard, Cambridge University      |                
   ============================================================                
 Warning: ion_atom_output_psp cannot write out meta-GGA pseudopotentials present
 ly.
 
 Pseudo atomic calculation performed for P 3s2 3p3
 
 Converged in 23 iterations to a total energy of -208.0292 eV
 
 Pseudo atomic calculation performed for In 4d10 5s2 5p1
 
 Converged in 42 iterations to a total energy of -1747.4504 eV
 Calculation parallelised over 32 processes.
 Data is distributed by k-point(32-way)

 ************************************ Title ************************************
 

 ***************************** General Parameters ******************************
  
 output verbosity                               : normal  (1)
 write checkpoint data to                       : WZ_EOS_1.1203.check
 type of calculation                            : single point energy
 stress calculation                             : on
 density difference calculation                 : off
 electron localisation func (ELF) calculation   : off
 Hirshfeld analysis                             : off
 molecular orbital projected DOS                : off
 deltaSCF calculation                           : off
 unlimited duration calculation
 timing information                             : on
 memory usage estimate                          : on
 write extra output files                       : on
 write final potential to formatted file        : off
 write final density to formatted file          : off
 write BibTeX reference list                    : on
 write OTFG pseudopotential files               : on
 write electrostatic potential file             : on
 write bands file                               : on
 checkpoint writing                             : off
  
 output         length unit                     : A
 output           mass unit                     : amu
 output           time unit                     : ps
 output         charge unit                     : e
 output           spin unit                     : hbar/2
 output         energy unit                     : eV
 output          force unit                     : eV/A
 output       velocity unit                     : A/ps
 output       pressure unit                     : GPa
 output     inv_length unit                     : 1/A
 output      frequency unit                     : cm-1
 output force constant unit                     : eV/A**2
 output         volume unit                     : A**3
 output   IR intensity unit                     : (D/A)**2/amu
 output         dipole unit                     : D
 output         efield unit                     : eV/A/e
 output        entropy unit                     : J/mol/K
 output    efield chi2 unit                     : pm/V
  
 wavefunctions paging                           : none
 random number generator seed                   : randomised (185051174)
 data distribution                              : optimal for this architecture
 optimization strategy                          : balance speed and memory

 *********************** Exchange-Correlation Parameters ***********************
  
 using functional                               : RSCAN
 relativistic treatment                         : Koelling-Harmon
 DFT+D: Semi-empirical dispersion correction    : off

 ************************* Pseudopotential Parameters **************************
  
 pseudopotential representation                 : reciprocal space
 <beta|phi> representation                      : reciprocal space
 spin-orbit coupling                            : off

 **************************** Basis Set Parameters *****************************
  
 plane wave basis set cut-off                   :   900.0000   eV
 size of standard grid                          :     1.7500
 size of   fine   gmax                          :    26.8966   1/A
 finite basis set correction                    : automatic
 number of sample energies                      :          3
           sample  spacing                      :     5.0000   eV

 **************************** Electronic Parameters ****************************
  
 number of  electrons                           :  36.00    
 net charge of system                           :  0.000    
 treating system as non-spin-polarized
 number of bands                                :         22

 ********************* Electronic Minimization Parameters **********************
  
 Method: Treating system as metallic with density mixing treatment of electrons,
         and number of  SD  steps               :          1
         and number of  CG  steps               :          4
  
 total energy / atom convergence tol.           : 0.1000E-07   eV
 eigen-energy convergence tolerance             : 0.2222E-08   eV
 max force / atom convergence tol.              : ignored
 convergence tolerance window                   :          3   cycles
 max. number of SCF cycles                      :         30
 number of fixed-spin iterations                :         10
 smearing scheme                                : Gaussian
 smearing width                                 : 0.2000       eV
 Fermi energy convergence tolerance             : 0.2721E-13   eV
 periodic dipole correction                     : NONE

 ************************** Density Mixing Parameters **************************
  
 density-mixing scheme                          : Broyden
 max. length of mixing history                  :         20
 charge density mixing amplitude                : 0.8000    
 cut-off energy for mixing                      :  900.0       eV

 *********************** Population Analysis Parameters ************************
  
 Population analysis with cutoff                :  3.000       A
 Population analysis output                     : summary and pdos components

 *******************************************************************************
  
 
                           -------------------------------
                                      Unit Cell
                           -------------------------------
        Real Lattice(A)                      Reciprocal Lattice(1/A)
     4.6655780    -0.0000490     0.0000000        1.346702854  -0.777500652   0.000000000
     2.3327470     4.0405330     0.0000000        0.000016332   1.555029302   0.000000000
     0.0000000     0.0000000     7.6618880        0.000000000   0.000000000   0.820057055
 
                       Lattice parameters(A)       Cell Angles
                    a =      4.665578          alpha =   90.000000
                    b =      4.665578          beta  =   90.000000
                    c =      7.661888          gamma =   60.001195
 
                       Current cell volume =           144.438359       A**3
                                   density =             2.018740   AMU/A**3
                                           =             3.352197     g/cm^3
 
                           -------------------------------
                                     Cell Contents
                           -------------------------------
                         Total number of ions in cell =    4
                      Total number of species in cell =    2
                        Max number of any one species =    2
 
            xxxxxxxxxxxxxxxxxxxxxxxxxxxxxxxxxxxxxxxxxxxxxxxxxxxxxxxxxxxx
            x  Element    Atom        Fractional coordinates of atoms  x
            x            Number           u          v          w      x
            x----------------------------------------------------------x
            x  P            1         0.333329   0.333331  -0.000013   x 
            x  P            2         0.666669   0.666671   0.499987   x 
            x  In           1         0.333331   0.333333   0.374443   x 
            x  In           2         0.666667   0.666669   0.874443   x 
            xxxxxxxxxxxxxxxxxxxxxxxxxxxxxxxxxxxxxxxxxxxxxxxxxxxxxxxxxxxx
 
 
                         No user defined ionic velocities
 
                           -------------------------------
                                   Details of Species
                           -------------------------------
 
                               Mass of species in AMU
                                    P   30.9737600
                                    In  114.8180000
 
                          Electric Quadrupole Moment (Barn)
                                    P    1.0000000 No Isotope Defined
                                    In    0.7700000 Isotope115
 
                          Files used for pseudopotentials:
                                    P 3|1.8|4|4|5|30:31:32
                                    In 3|2.5|2.5|1.5|7|8|9|50:51:42U2.2U2.2
 
                           -------------------------------
                              k-Points For BZ Sampling
                           -------------------------------
                       MP grid size for SCF calculation is  9  9  5
                            with an offset of   0.056  0.056  0.100
                       Number of kpoints used =           203
 
                           -------------------------------
                               Symmetry and Constraints
                           -------------------------------
 
                      Maximum deviation from symmetry =  0.00000         ANG
 
                      Number of symmetry operations   =           1
                      Number of ionic constraints     =           3
                      Point group of crystal =     1: C1, 1, 1
                      Space group of crystal =   186: P6_3mc, P 6c -2c
 
             Set iprint > 1 for details on symmetry rotations/translations
 
                         Centre of mass is constrained
             Set iprint > 1 for details of linear ionic constraints
 
                         Number of cell constraints= 0
                         Cell constraints are:  1 2 3 4 5 6
 
                         External pressure/stress (GPa)
                          0.00000   0.00000   0.00000
                                    0.00000   0.00000
                                              0.00000
  
+---------------- MEMORY AND SCRATCH DISK ESTIMATES PER PROCESS --------------+
|                                                     Memory          Disk    |
| Baseline code, static data and system overhead      394.0 MB         0.0 MB |
| BLAS internal memory storage                          0.0 MB         0.0 MB |
| Model and support data                              239.7 MB       609.9 MB |
| Electronic energy minimisation requirements          85.3 MB         0.0 MB |
| Force calculation requirements                       16.7 MB         0.0 MB |
| Stress calculation requirements                      18.5 MB         0.0 MB |
|                                               ----------------------------- |
| Approx. total storage required per process          719.0 MB       609.9 MB |
|                                                                             |
| Requirements will fluctuate during execution and may exceed these estimates |
+-----------------------------------------------------------------------------+
Calculating finite basis set correction with  3 cut-off energies.
Calculating total energy with cut-off of  890.000 eV.
------------------------------------------------------------------------ <-- SCF
SCF loop      Energy           Fermi           Energy gain       Timer   <-- SCF
                               energy          per atom          (sec)   <-- SCF
------------------------------------------------------------------------ <-- SCF
Initial  -3.08863434E+003  0.00000000E+000                        20.57  <-- SCF
      1  -3.80796165E+003  2.86790119E+000   1.79831828E+002      38.75  <-- SCF
      2  -3.91115700E+003  2.95383420E-001   2.57988384E+001      51.15  <-- SCF
      3  -3.91546322E+003 -1.88330711E-001   1.07655349E+000      63.07  <-- SCF
      4  -3.92844763E+003  5.10857553E-001   3.24610401E+000      78.67  <-- SCF
      5  -3.92845921E+003  5.10419473E-001   2.89332177E-003      93.72  <-- SCF
      6  -3.92889566E+003  4.76187349E-001   1.09112484E-001     109.22  <-- SCF
      7  -3.92798423E+003  5.85952737E-001  -2.27857473E-001     124.83  <-- SCF
      8  -3.92808029E+003  6.31198197E-001   2.40163320E-002     140.15  <-- SCF
      9  -3.92808023E+003  6.46358628E-001  -1.51215592E-005     157.78  <-- SCF
     10  -3.92808077E+003  6.58162017E-001   1.33715017E-004     173.43  <-- SCF
     11  -3.92808100E+003  6.63771433E-001   5.84426653E-005     189.05  <-- SCF
     12  -3.92808105E+003  6.63652575E-001   1.20278733E-005     205.07  <-- SCF
     13  -3.92808105E+003  6.64041264E-001   4.75001839E-007     219.35  <-- SCF
     14  -3.92808105E+003  6.64131744E-001   4.82383306E-007     233.31  <-- SCF
     15  -3.92808105E+003  6.64140317E-001   1.37521073E-008     245.03  <-- SCF
     16  -3.92808105E+003  6.64153254E-001   3.24110135E-009     256.08  <-- SCF
     17  -3.92808105E+003  6.64159357E-001   5.82945808E-010     267.28  <-- SCF
------------------------------------------------------------------------ <-- SCF
 
Final energy, E             =  -3928.079749306     eV
Final free energy (E-TS)    =  -3928.081052454     eV
(energies not corrected for finite basis set)
 
NB est. 0K energy (E-0.5TS)      =  -3928.080400880     eV
 
Calculating total energy with cut-off of  895.000 eV.
------------------------------------------------------------------------ <-- SCF
SCF loop      Energy           Fermi           Energy gain       Timer   <-- SCF
                               energy          per atom          (sec)   <-- SCF
------------------------------------------------------------------------ <-- SCF
Initial  -3.92807975E+003  0.00000000E+000                       273.47  <-- SCF
      1  -3.92808106E+003  6.64160595E-001   3.26530462E-004     287.45  <-- SCF
      2  -3.92808106E+003  6.64160595E-001   4.35034185E-011     298.55  <-- SCF
      3  -3.92808106E+003  6.64158816E-001   3.33139511E-010     309.78  <-- SCF
      4  -3.92808106E+003  6.64158822E-001   1.87548071E-011     320.71  <-- SCF
------------------------------------------------------------------------ <-- SCF
 
Final energy, E             =  -3928.079752268     eV
Final free energy (E-TS)    =  -3928.081055416     eV
(energies not corrected for finite basis set)
 
NB est. 0K energy (E-0.5TS)      =  -3928.080403842     eV
 
Calculating total energy with cut-off of  900.000 eV.
------------------------------------------------------------------------ <-- SCF
SCF loop      Energy           Fermi           Energy gain       Timer   <-- SCF
                               energy          per atom          (sec)   <-- SCF
------------------------------------------------------------------------ <-- SCF
Initial  -3.92807975E+003  0.00000000E+000                       327.41  <-- SCF
      1  -3.92808106E+003  6.64158629E-001   3.26338337E-004     341.25  <-- SCF
      2  -3.92808106E+003  6.64158629E-001   1.23743057E-011     352.33  <-- SCF
      3  -3.92808106E+003  6.64159206E-001   2.36851945E-010     363.29  <-- SCF
      4  -3.92808106E+003  6.64158556E-001   1.37277454E-011     374.18  <-- SCF
------------------------------------------------------------------------ <-- SCF
 
Final energy, E             =  -3928.079754464     eV
Final free energy (E-TS)    =  -3928.081057610     eV
(energies not corrected for finite basis set)
 
NB est. 0K energy (E-0.5TS)      =  -3928.080406037     eV
 
 For future reference: finite basis dEtot/dlog(Ecut) =      -0.000463eV
 Total energy corrected for finite basis set =   -3928.081058 eV
 
 ************************** Forces **************************
 *                                                          *
 *               Cartesian components (eV/A)                *
 * -------------------------------------------------------- *
 *                         x            y            z      *
 *                                                          *
 * P               1     -0.00086     -0.00050     -0.04692 *
 * P               2      0.00087      0.00050     -0.04692 *
 * In              1     -0.00090     -0.00052      0.04692 *
 * In              2      0.00089      0.00052      0.04692 *
 *                                                          *
 ************************************************************
 
 ***************** Stress Tensor *****************
 *                                               *
 *          Cartesian components (GPa)           *
 * --------------------------------------------- *
 *             x             y             z     *
 *                                               *
 *  x     10.221109      0.002718      0.000000  *
 *  y      0.002718     10.217964      0.000000  *
 *  z      0.000000      0.000000     10.241272  *
 *                                               *
 *  Pressure:  -10.2268                          *
 *                                               *
 *************************************************
 
 Pseudo atomic calculation performed for P 3s2 3p3
 
 Converged in 23 iterations to a total energy of -208.0292 eV
 
 Pseudo atomic calculation performed for In 4d10 5s2 5p1
 
 Converged in 42 iterations to a total energy of -1747.4504 eV
Charge spilling parameter for spin component 1 = 0.13%
 
            Orbital Populations       
     Ion    Atom   Orbital             Charge
  -------------------------------------------
      P     1      S                    1.835
      P     1      Px                   1.246
      P     1      Py                   1.247
      P     1      Pz                   1.245
      P     2      S                    1.835
      P     2      Px                   1.246
      P     2      Py                   1.247
      P     2      Pz                   1.245
     In     1      Dzz                  1.999
     In     1      Dzy                  2.000
     In     1      Dzx                  2.000
     In     1      Dxx-yy               1.999
     In     1      Dxy                  1.999
     In     1      S                    1.442
     In     1      Px                   0.422
     In     1      Py                   0.422
     In     1      Pz                   0.420
     In     1      S                   -0.275
     In     2      Dzz                  1.999
     In     2      Dzy                  2.000
     In     2      Dzx                  2.000
     In     2      Dxx-yy               1.999
     In     2      Dxy                  1.999
     In     2      S                    1.442
     In     2      Px                   0.422
     In     2      Py                   0.422
     In     2      Pz                   0.420
     In     2      S                   -0.275
  -------------------------------------------
                           Total:      36.000
  -------------------------------------------
 
     Atomic Populations (Mulliken)
     -----------------------------
Species          Ion     s      p      d      f     Total  Charge (e)
=====================================================================
  P               1     1.84   3.74   0.00   0.00   5.57    -0.57
  P               2     1.84   3.74   0.00   0.00   5.57    -0.57
  In              1     1.17   1.26  10.00   0.00  12.43     0.57
  In              2     1.17   1.26  10.00   0.00  12.43     0.57
=====================================================================
 
                 Bond                   Population      Length (A)
======================================================================
               P 1 -- In 2                   1.53        2.86028
               P 2 -- In 1                   1.53        2.86028
               P 2 -- In 2                   0.32        2.86904
               P 1 -- In 1                   0.32        2.86904
======================================================================
 
 
 A BibTeX formatted list of references used in this run has been written to 
 WZ_EOS_1.1203.bib
 
Initialisation time =     16.31 s
Calculation time    =    405.92 s
Finalisation time   =      0.23 s
Total time          =    422.46 s
Peak Memory Use     = 1719644 kB
  
Overall parallel efficiency rating: Excellent (96%)                             
  
Data was distributed by:-
k-point (32-way); efficiency rating: Excellent (96%)                            
  
Parallel notes:
1) Calculation only took 422.2 s, so efficiency estimates may be inaccurate.    
