 +-------------------------------------------------+
 |                                                 |
 |      CCC   AA    SSS  TTTTT  EEEEE  PPPP        |
 |     C     A  A  S       T    E      P   P       |
 |     C     AAAA   SS     T    EEE    PPPP        |
 |     C     A  A     S    T    E      P           |
 |      CCC  A  A  SSS     T    EEEEE  P           |
 |                                                 |
 +-------------------------------------------------+
 |                                                 |
 | Welcome to Academic Release CASTEP version 24.1 |
 | Ab Initio Total Energy Program                  |
 |                                                 |
 | Authors:                                        |
 | M. Segall, M. Probert, C. Pickard, P. Hasnip,   |
 | S. Clark, K. Refson, J. R. Yates,               |
 | A. Bartok-Partay, M. Payne                      |
 |                                                 |
 | Contributors:                                   |
 | P. Lindan, P. Haynes, J. White, V. Milman,      |
 | N. Govind, M. Gibson, P. Tulip, V. Cocula,      |
 | B. Montanari, D. Quigley, M. Glover,            |
 | L. Bernasconi, A. Perlov, M. Plummer,           |
 | E. McNellis, J. Meyer, J. Gale, D. Jochym       |
 | J. Aarons, B. Walker, R. Gillen, D. Jones       |
 | T. Green, I. J. Bush, C. J. Armstrong,          |
 | E. J. Higgins, E. L. Brown, M. S. McFly,        |
 | J. Wilkins, B-C. Shih, P. J. P. Byrne,          |
 | R. J. Maurer, J. C. Womack, J. Dziedzic,        |
 | L. LeBlanc, T. K. Stenczel, J. Kermode,         |
 | S. Sturniolo, B. Shi, B. Durham, M. Evans,      |
 | M. J. Smith, A. Tamerus, Z. Hawkhead,           |
 | V. Ravindran, T. Hollins, S. A. Joyce,          |
 | R. T. Strong, A. M. Reilly, S. J. Donaldson     |
 |                                                 |
 | Copyright (c) 2000 - 2023                       |
 |                                                 |
 |     Distributed under license from Cambridge    |
 |     Enterprise for academic use only.           |
 |                                                 |
 | Please cite                                     |
 |                                                 |
 |     "First principles methods using CASTEP"     |
 |                                                 |
 |         Zeitschrift fuer Kristallographie       |
 |           220(5-6) pp. 567-570 (2005)           |
 |                                                 |
 | S. J. Clark, M. D. Segall, C. J. Pickard,       |
 | P. J. Hasnip, M. J. Probert, K. Refson,         |
 | M. C. Payne                                     |
 |                                                 |
 |       in all publications arising from          |
 |              your use of CASTEP                 |
 |                                                 |
 +-------------------------------------------------+
 |                                                 |
 |              http://www.castep.org              |
 |                                                 |
 +-------------------------------------------------+



 Compiled for  GNU 11.2.0 on 04-04-2024 18:39:17
 from code version 6355fd106 Castep241_branch Thu Mar 7 17:56:19 2024 +0000
 Compiler: GNU Fortran 11.2.0; Optimisation: FAST
 Comms   : MPI VERSION : CRAY MPICH version 8.1.23.14 (ANL base 3.4a2)
 MATHLIBS: default (LAPACK version 3.10.1)
 FFT Lib : fftw3 version commercial-fftw-3.3.10-sse2-avx-avx2-avx2_128
 Fundamental constants values: CODATA 2018

 Run started: Sun, 27 Apr 2025 04:38:07 +0100

 Atomic calculation performed for P: 1s2 2s2 2p6 3s2 3p3

 Converged in 47 iterations to an ae energy of -9309.074 eV

   ============================================================                
   | Pseudopotential Report - Date of generation 27-04-2025   |                
   ------------------------------------------------------------                
   | Element: P Ionic charge:  5.00 Level of theory: RSCAN    |                
   | Atomic Solver: Koelling-Harmon                           |                
   |                                                          |                
   |               Reference Electronic Structure             |                
   |         Orbital         Occupation         Energy        |                
   |            3s              2.000           -0.535        |                
   |            3p              3.000           -0.209        |                
   |                                                          |                
   |                 Pseudopotential Definition               |                
   |        Beta     l      e      Rc     scheme   norm       |                
   |          1      0   -0.535   1.807     qc      0         |                
   |          2      0    0.250   1.807     qc      0         |                
   |          3      1   -0.209   1.807     qc      0         |                
   |          4      1    0.250   1.807     qc      0         |                
   |          5      2    0.000   1.807     qc      0         |                
   |          6      2    0.250   1.807     qc      0         |                
   |         loc     3    0.000   1.807     pn      0         |                
   |                                                          |                
   | Augmentation charge Rinner = 1.263                       |                
   | Partial core correction Rc = 1.263                       |                
   ------------------------------------------------------------                
   | "3|1.8|4|4|5|30:31:32"                                   |                
   ------------------------------------------------------------                
   |      Author: Chris J. Pickard, Cambridge University      |                
   ============================================================                
 Warning: otfg_output_psp cannot write out meta-GGA pseudopotentials presently.

 Atomic calculation performed for In:
 1s2 2s2 2p6 3s2 3p6 3d10 4s2 4p6 4d10 5s2 5p1

 Converged in 84 iterations to an ae energy of -160093.328 eV

   ============================================================                
   | Pseudopotential Report - Date of generation 27-04-2025   |                
   ------------------------------------------------------------                
   | Element: In Ionic charge: 13.00 Level of theory: RSCAN   |                
   | Atomic Solver: Koelling-Harmon                           |                
   |                                                          |                
   |               Reference Electronic Structure             |                
   |         Orbital         Occupation         Energy        |                
   |            4d             10.000           -0.711        |                
   |            5s              2.000           -0.313        |                
   |            5p              1.000           -0.095        |                
   |                                                          |                
   |                 Pseudopotential Definition               |                
   |        Beta     l      e      Rc     scheme   norm       |                
   |          1      0   -0.313   2.501     qc      0         |                
   |          2      0    0.250   2.501     qc      0         |                
   |          3      1   -0.095   2.501     qc      0         |                
   |          4      1    0.250   2.501     qc      0         |                
   |          5      2   -0.711   2.207     qc      0         |                
   |          6      2    0.250   2.207     qc      0         |                
   |         loc     3    0.000   2.501     pn      0         |                
   |                                                          |                
   | Augmentation charge Rinner = 1.504                       |                
   | Partial core correction Rc = 1.504                       |                
   ------------------------------------------------------------                
   | "3|2.5|2.5|1.5|7|8|9|50:51:42U2.2U2.2"                   |                
   ------------------------------------------------------------                
   |      Author: Chris J. Pickard, Cambridge University      |                
   ============================================================                
 Warning: otfg_output_psp cannot write out meta-GGA pseudopotentials presently.

 Pseudo atomic calculation performed for P 3s2 3p3

 Converged in 23 iterations to a total energy of -208.0292 eV

 Pseudo atomic calculation performed for In 4d10 5s2 5p1

 Converged in 42 iterations to a total energy of -1747.4501 eV
 Calculation parallelised over 108 processes.
 Data is distributed by G-vector(3-way) and k-point(36-way)
 Each process may use up to 16 threads.

 ************************************ Title ************************************
 

 ***************************** General Parameters ******************************
  
 output verbosity                               : normal  (1)
 write checkpoint data to                       : In_Interstitial_Migration_Tetra_Octa_Singlepoints_1.check
 type of calculation                            : single point energy
 stress calculation                             : off
 density difference calculation                 : off
 electron localisation func (ELF) calculation   : off
 Hirshfeld analysis                             : on
 polarisation (Berry phase) analysis            : off
 molecular orbital projected DOS                : off
 deltaSCF calculation                           : off
 unlimited duration calculation
 timing information                             : on
 memory usage estimate                          : on
 write extra output files                       : on
 write final potential to formatted file        : off
 write final density to formatted file          : off
 write BibTeX reference list                    : on
 write OTFG pseudopotential files               : on
 write electrostatic potential file             : on
 write bands file                               : on
 checkpoint writing                             : off
  
 output         length unit                     : A
 output           mass unit                     : amu
 output           time unit                     : ps
 output         charge unit                     : e
 output           spin unit                     : hbar/2
 output         energy unit                     : eV
 output          force unit                     : eV/A
 output       velocity unit                     : A/ps
 output       pressure unit                     : GPa
 output     inv_length unit                     : 1/A
 output      frequency unit                     : cm-1
 output force constant unit                     : eV/A**2
 output         volume unit                     : A**3
 output   IR intensity unit                     : (D/A)**2/amu
 output         dipole unit                     : D
 output         efield unit                     : eV/A/e
 output        entropy unit                     : J/mol/K
 output    efield chi2 unit                     : pm/V
  
 wavefunctions paging                           : none
 random number generator seed                   :   43808252
 data distribution                              : optimal for this architecture
 optimization strategy                          : balance speed and memory

 *********************** Exchange-Correlation Parameters ***********************
  
 using functional                               : RSCAN
 relativistic treatment                         : Koelling-Harmon
 DFT+D: Semi-empirical dispersion correction    : off

 ************************* Pseudopotential Parameters **************************
  
 pseudopotential representation                 : reciprocal space
 <beta|phi> representation                      : reciprocal space
 spin-orbit coupling                            : off

 **************************** Basis Set Parameters *****************************
  
 plane wave basis set cut-off                   :   900.0000   eV
 size of standard grid                          :     2.0000
 size of   fine   gmax                          :    30.7390   1/A
 finite basis set correction                    : none

 **************************** Electronic Parameters ****************************
  
 number of  electrons                           :  589.0    
 net charge of system                           :  0.000    
 net spin   of system                           :  1.000    
 number of  up  spins                           :  295.0    
 number of down spins                           :  294.0    
 treating system as spin-polarized
 number of bands                                :        354

 ********************* Electronic Minimization Parameters **********************
  
 Method: Treating system as metallic with density mixing treatment of electrons,
         and number of  SD  steps               :          1
         and number of  CG  steps               :          4
  
 total energy / atom convergence tol.           : 0.1000E-07   eV
 eigen-energy convergence tolerance             : 0.2203E-08   eV
 max force / atom convergence tol.              : ignored
 convergence tolerance window                   :          3   cycles
 max. number of SCF cycles                      :        100
 number of fixed-spin iterations                :         10
 smearing scheme                                : Gaussian
 smearing width                                 : 0.2000       eV
 Fermi energy convergence tolerance             : 0.2721E-13   eV
 periodic dipole correction                     : NONE

 ************************** Density Mixing Parameters **************************
  
 density-mixing scheme                          : Pulay
 max. length of mixing history                  :         20
 charge density mixing amplitude                : 0.5000    
   spin density mixing amplitude                :  2.000    
 cut-off energy for mixing                      :  900.0       eV

 *********************** Population Analysis Parameters ************************
  
 Population analysis with cutoff                :  3.000       A
 Population analysis output                     : summary and pdos components

 *******************************************************************************
  

                           -------------------------------
                                      Unit Cell
                           -------------------------------
        Real Lattice(A)                      Reciprocal Lattice(1/A)
    11.8025500     0.0000000     0.0000000        0.532358288   0.000000000   0.000000000
     0.0000000    11.8025500     0.0000000        0.000000000   0.532358288   0.000000000
     0.0000000     0.0000000    11.8025500        0.000000000   0.000000000   0.532358288

                       Lattice parameters(A)       Cell Angles
                    a =     11.802550          alpha =   90.000000
                    b =     11.802550          beta  =   90.000000
                    c =     11.802550          gamma =   90.000000

                       Current cell volume =          1644.097416       A**3
                                   density =             2.907464   AMU/A**3
                                           =             4.827958     g/cm^3

                           -------------------------------
                                     Cell Contents
                           -------------------------------
                         Total number of ions in cell =   65
                      Total number of species in cell =    2
                        Max number of any one species =   33

            xxxxxxxxxxxxxxxxxxxxxxxxxxxxxxxxxxxxxxxxxxxxxxxxxxxxxxxxxxxx
            x  Element    Atom        Fractional coordinates of atoms  x
            x            Number           u          v          w      x
            x----------------------------------------------------------x
            x  P            1         0.130057   0.119942   0.377589   x 
            x  P            2         0.380235   0.125242   0.126090   x 
            x  P            3         0.130057   0.376742   0.120790   x 
            x  P            4         0.375699   0.375706   0.376553   x 
            x  P            5         0.124758   0.125242   0.870613   x 
            x  P            6         0.376938   0.122989   0.624341   x 
            x  P            7         0.125996   0.374194   0.624904   x 
            x  P            8         0.389899   0.384479   0.860949   x 
            x  P            9         0.125996   0.624056   0.375041   x 
            x  P           10         0.376938   0.623493   0.123837   x 
            x  P           11         0.124758   0.869765   0.126090   x 
            x  P           12         0.389899   0.860101   0.385326   x 
            x  P           13         0.127011   0.623493   0.873909   x 
            x  P           14         0.378026   0.624452   0.625300   x 
            x  P           15         0.127011   0.873062   0.624341   x 
            x  P           16         0.373832   0.876168   0.877015   x 
            x  P           17         0.625944   0.124004   0.375041   x 
            x  P           18         0.873258   0.119942   0.120790   x 
            x  P           19         0.625944   0.374194   0.124852   x 
            x  P           20         0.876212   0.373788   0.374635   x 
            x  P           21         0.626507   0.122989   0.873909   x 
            x  P           22         0.875806   0.124004   0.624904   x 
            x  P           23         0.629321   0.373509   0.621527   x 
            x  P           24         0.874294   0.375706   0.875149   x 
            x  P           25         0.629321   0.620679   0.374356   x 
            x  P           26         0.875806   0.624056   0.124852   x 
            x  P           27         0.626507   0.873062   0.123837   x 
            x  P           28         0.874294   0.874301   0.376553   x 
            x  P           29         0.625548   0.624452   0.872822   x 
            x  P           30         0.876491   0.620679   0.621527   x 
            x  P           31         0.625548   0.871974   0.625300   x 
            x  P           32         0.865521   0.860101   0.860949   x 
            x  In           1        -0.016683  -0.017999  -0.017151   x 
            x  In           2         0.267999  -0.017999   0.267531   x 
            x  In           3        -0.001019   0.251019   0.251867   x 
            x  In           4         0.267999   0.266683  -0.017151   x 
            x  In           5         0.000793  -0.001659   0.501467   x 
            x  In           6         0.250806  -0.000806   0.748971   x 
            x  In           7        -0.001576   0.251576   0.749118   x 
            x  In           8         0.251659   0.249207   0.501467   x 
            x  In           9         0.000793   0.500619  -0.000811   x 
            x  In          10         0.251659   0.500619   0.250055   x 
            x  In          11        -0.001576   0.748270   0.252424   x 
            x  In          12         0.250806   0.748123   0.000042   x 
            x  In          13         0.002327   0.497287   0.498135   x 
            x  In          14         0.250377   0.501984   0.745782   x 
            x  In          15         0.003806   0.742898   0.743745   x 
            x  In          16         0.250377   0.744934   0.502832   x 
            x  In          17         0.501877  -0.000806   0.000042   x 
            x  In          18         0.749381  -0.001659   0.250055   x 
            x  In          19         0.501730   0.251576   0.252424   x 
            x  In          20         0.749381   0.249207  -0.000811   x 
            x  In          21         0.505066  -0.000377   0.502832   x 
            x  In          22         0.748016  -0.000377   0.745782   x 
            x  In          23         0.507102   0.246194   0.743745   x 
            x  In          24         0.752713   0.247673   0.498135   x 
            x  In          25         0.505066   0.501984   0.000470   x 
            x  In          26         0.752713   0.497287   0.248520   x 
            x  In          27         0.507102   0.742898   0.247041   x 
            x  In          28         0.748016   0.744934   0.000470   x 
            x  In          29         0.502491   0.499424   0.500272   x 
            x  In          30         0.750576   0.499424   0.748356   x 
            x  In          31         0.498896   0.751104   0.751951   x 
            x  In          32         0.750576   0.747509   0.500272   x 
            x  In          33         0.139156   0.110844   0.111692   x 
            xxxxxxxxxxxxxxxxxxxxxxxxxxxxxxxxxxxxxxxxxxxxxxxxxxxxxxxxxxxx


                         No user defined ionic velocities

                           -------------------------------
                                   Details of Species
                           -------------------------------

                               Mass of species in AMU
                                    P   30.9737600
                                    In  114.8180000

                          Electric Quadrupole Moment (Barn)
                                    P    1.0000000 No Isotope Defined
                                    In    0.7700000 Isotope115

                          Files used for pseudopotentials:
                                    P 3|1.8|4|4|5|30:31:32
                                    In 3|2.5|2.5|1.5|7|8|9|50:51:42U2.2U2.2

                           -------------------------------
                              k-Points For BZ Sampling
                           -------------------------------
                       MP grid size for SCF calculation is  4  4  4
                            with an offset of   0.125  0.125  0.125
                       Number of kpoints used =            36

                           -------------------------------
                               Symmetry and Constraints
                           -------------------------------

                      Maximum deviation from symmetry =  0.00000         ANG

                      Number of symmetry operations   =           1
                      Number of ionic constraints     =           3
                      Point group of crystal =     1: C1, 1, 1
                      Space group of crystal =   160: R3m, R 3 -2"

             Set iprint > 1 for details on symmetry rotations/translations

                         Centre of mass is constrained
             Set iprint > 1 for details of linear ionic constraints

                         Number of cell constraints= 0
                         Cell constraints are:  1 2 3 4 5 6

                         External pressure/stress (GPa)
                          0.00000   0.00000   0.00000
                                    0.00000   0.00000
                                              0.00000
 
+---------------- MEMORY AND SCRATCH DISK ESTIMATES PER PROCESS --------------+
|                                                     Memory          Disk    |
| Baseline code, static data and system overhead      368.0 MB         0.0 MB |
| BLAS internal memory storage                          0.0 MB         0.0 MB |
| Model and support data                             4331.9 MB         0.0 MB |
| Electronic energy minimisation requirements        1349.7 MB         0.0 MB |
| Force calculation requirements                      127.4 MB         0.0 MB |
|                                               ----------------------------- |
| Approx. total storage required per process         6049.6 MB         0.0 MB |
|                                                                             |
| Requirements will fluctuate during execution and may exceed these estimates |
+-----------------------------------------------------------------------------+
Calculating approximate eigenstates for fixed initial Hamiltonian
Cut-off for approx. calculation is   89.988 eV
Improving approx. states at cut-off of  450.000 eV
Resetting cut-off to  900.000 eV
Calculating total energy with cut-off of  900.000 eV.
------------------------------------------------------------------------ <-- SCF
SCF loop      Energy           Fermi           Energy gain       Timer   <-- SCF
                               energy          per atom          (sec)   <-- SCF
------------------------------------------------------------------------ <-- SCF
Initial  -6.48023182E+004  0.00000000E+000                       446.65  <-- SCF
      1  -6.45477867E+004  3.73404141E+000  -3.91587040E+000     901.47  <-- SCF
      2  -6.45480992E+004  3.72876814E+000   4.80763311E-003    1232.41  <-- SCF
      3  -6.46180154E+004  3.90194332E+000   1.07563452E+000    1581.61  <-- SCF
      4  -6.46303592E+004  3.96735453E+000   1.89904697E-001    2075.25  <-- SCF
      5  -6.46367319E+004  4.14212797E+000   9.80414731E-002    2426.76  <-- SCF
      6  -6.46257379E+004  4.37556771E+000  -1.69139301E-001    2787.49  <-- SCF
      7  -6.46244276E+004  4.41783497E+000  -2.01572798E-002    3136.02  <-- SCF
      8  -6.46245329E+004  4.44936363E+000   1.62004154E-003    3506.57  <-- SCF
      9  -6.46253198E+004  4.46762552E+000   1.21057356E-002    3875.59  <-- SCF
     10  -6.46257412E+004  4.78773984E+000   6.48325286E-003    4371.06  <-- SCF
     11  -6.46257527E+004  4.78175673E+000   1.76231453E-004    4825.45  <-- SCF
     12  -6.46257575E+004  4.77978868E+000   7.44086140E-005    5191.87  <-- SCF
     13  -6.46257596E+004  4.77680479E+000   3.22265382E-005    5565.92  <-- SCF
     14  -6.46257600E+004  4.77558918E+000   6.33389960E-006    5931.08  <-- SCF
     15  -6.46257602E+004  4.77514076E+000   2.74825450E-006    6283.24  <-- SCF
     16  -6.46257602E+004  4.77474616E+000   7.89438637E-007    6621.25  <-- SCF
     17  -6.46257603E+004  4.77448160E+000   2.66068706E-007    6950.94  <-- SCF
     18  -6.46257603E+004  4.77444381E+000   8.54630478E-008    7243.52  <-- SCF
     19  -6.46257603E+004  4.77445298E+000   4.34486625E-008    7522.10  <-- SCF
     20  -6.46257603E+004  4.77447568E+000   1.06451393E-008    7783.92  <-- SCF
     21  -6.46257603E+004  4.77448312E+000   1.01602569E-009    8040.96  <-- SCF
     22  -6.46257603E+004  4.77448734E+000   3.51620659E-010    8292.14  <-- SCF
------------------------------------------------------------------------ <-- SCF
 
Integrated Spin Density     =   -0.834367E-04 hbar/2
Integrated |Spin Density|   =    0.260995E-03 hbar/2
 
Final energy, E             =  -64625.63879366     eV
Final free energy (E-TS)    =  -64625.76027221     eV
(energies not corrected for finite basis set)
 
NB est. 0K energy (E-0.5TS)      =  -64625.69953293     eV
 

 ************************** Forces **************************
 *                                                          *
 *               Cartesian components (eV/A)                *
 * -------------------------------------------------------- *
 *                         x            y            z      *
 *                                                          *
 * P               1     -0.04166      0.04166      0.01122 *
 * P               2     -0.07122     -0.06139     -0.05878 *
 * P               3     -0.04189      0.01179      0.03726 *
 * P               4     -0.03241     -0.03219     -0.03109 *
 * P               5      0.06124     -0.06124      0.06892 *
 * P               6      0.00231      0.00351      0.00069 *
 * P               7      0.00045     -0.03012     -0.01037 *
 * P               8     -0.00465      0.00168      0.00302 *
 * P               9      0.00049     -0.01236     -0.02808 *
 * P              10      0.00207     -0.00089      0.00418 *
 * P              11      0.06139      0.07123     -0.05878 *
 * P              12     -0.00438      0.00437      0.00253 *
 * P              13     -0.00374     -0.00092     -0.00146 *
 * P              14      0.04297     -0.01126     -0.00832 *
 * P              15     -0.00351     -0.00230      0.00069 *
 * P              16      0.06181     -0.06182     -0.06185 *
 * P              17      0.01236     -0.00049     -0.02809 *
 * P              18     -0.01180      0.04189      0.03726 *
 * P              19      0.01227     -0.03009      0.00144 *
 * P              20     -0.04269      0.04269      0.04430 *
 * P              21      0.00093      0.00375     -0.00146 *
 * P              22      0.03013     -0.00044     -0.01037 *
 * P              23     -0.00472      0.03399      0.00061 *
 * P              24      0.03217     -0.03217      0.03439 *
 * P              25     -0.00490      0.00490      0.03635 *
 * P              26      0.03009     -0.01227      0.00144 *
 * P              27      0.00089     -0.00207      0.00419 *
 * P              28      0.03219      0.03240     -0.03109 *
 * P              29      0.01089     -0.01089     -0.04424 *
 * P              30     -0.03399      0.00472      0.00061 *
 * P              31      0.01126     -0.04297     -0.00832 *
 * P              32     -0.00168      0.00465      0.00302 *
 * In              1     -0.03610      0.01310      0.01276 *
 * In              2     -0.01308      0.01308      0.03575 *
 * In              3     -0.03227      0.03228      0.03193 *
 * In              4     -0.01310      0.03610      0.01276 *
 * In              5      0.02633     -0.00433     -0.01170 *
 * In              6      0.00319     -0.00319     -0.05539 *
 * In              7     -0.01909      0.01908     -0.05029 *
 * In              8      0.00433     -0.02632     -0.01170 *
 * In              9      0.02633     -0.01137     -0.00471 *
 * In             10      0.00434     -0.01134     -0.02663 *
 * In             11     -0.01910     -0.04989      0.01870 *
 * In             12      0.00320     -0.05504     -0.00357 *
 * In             13      0.00867      0.01993      0.01950 *
 * In             14     -0.00886     -0.00822      0.00930 *
 * In             15      0.00106      0.00359      0.00321 *
 * In             16     -0.00885      0.00976     -0.00867 *
 * In             17      0.05503     -0.00320     -0.00356 *
 * In             18      0.01133     -0.00434     -0.02663 *
 * In             19      0.04989      0.01909      0.01870 *
 * In             20      0.01136     -0.02633     -0.00471 *
 * In             21     -0.00976      0.00885     -0.00867 *
 * In             22      0.00822      0.00886      0.00931 *
 * In             23     -0.00359     -0.00107      0.00321 *
 * In             24     -0.01993     -0.00867      0.01950 *
 * In             25     -0.00976     -0.00823      0.00851 *
 * In             26     -0.01991      0.01991     -0.00909 *
 * In             27     -0.00359      0.00359     -0.00153 *
 * In             28      0.00823      0.00976      0.00850 *
 * In             29     -0.01960     -0.02547     -0.02580 *
 * In             30      0.02546     -0.02546      0.01925 *
 * In             31     -0.01618      0.01618      0.01578 *
 * In             32      0.02547      0.01961     -0.02581 *
 * In             33     -0.12233      0.12233      0.12191 *
 *                                                          *
 ************************************************************

 Pseudo atomic calculation performed for P 3s2 3p3

 Converged in 23 iterations to a total energy of -208.0292 eV

 Pseudo atomic calculation performed for In 4d10 5s2 5p1

 Converged in 42 iterations to a total energy of -1747.4501 eV
Charge spilling parameter for spin component 1 = 0.26%
Charge spilling parameter for spin component 2 = 0.26%

                   Orbital Populations                  
  ---------------------------------------------------------------
     Ion    Atom   Orbital              Up        Down      Spin
  ---------------------------------------------------------------
      P     1      S                    0.878     0.878    -0.000
      P     1      Px                   0.649     0.649    -0.000
      P     1      Py                   0.649     0.649    -0.000
      P     1      Pz                   0.638     0.638     0.000
      P     2      S                    0.881     0.881     0.000
      P     2      Px                   0.632     0.632     0.000
      P     2      Py                   0.652     0.652    -0.000
      P     2      Pz                   0.652     0.652    -0.000
      P     3      S                    0.878     0.878    -0.000
      P     3      Px                   0.649     0.649    -0.000
      P     3      Py                   0.638     0.638    -0.000
      P     3      Pz                   0.649     0.649    -0.000
      P     4      S                    0.868     0.868    -0.000
      P     4      Px                   0.656     0.656    -0.000
      P     4      Py                   0.656     0.656    -0.000
      P     4      Pz                   0.656     0.656    -0.000
      P     5      S                    0.881     0.881    -0.000
      P     5      Px                   0.652     0.652    -0.000
      P     5      Py                   0.652     0.652    -0.000
      P     5      Pz                   0.632     0.632    -0.000
      P     6      S                    0.868     0.868    -0.000
      P     6      Px                   0.653     0.653     0.000
      P     6      Py                   0.658     0.658    -0.000
      P     6      Pz                   0.657     0.657    -0.000
      P     7      S                    0.868     0.868    -0.000
      P     7      Px                   0.657     0.657    -0.000
      P     7      Py                   0.655     0.655    -0.000
      P     7      Pz                   0.655     0.655     0.000
      P     8      S                    0.869     0.869     0.000
      P     8      Px                   0.655     0.655    -0.000
      P     8      Py                   0.655     0.655    -0.000
      P     8      Pz                   0.655     0.655    -0.000
      P     9      S                    0.868     0.868     0.000
      P     9      Px                   0.657     0.657    -0.000
      P     9      Py                   0.655     0.655     0.000
      P     9      Pz                   0.655     0.655    -0.000
      P    10      S                    0.868     0.868    -0.000
      P    10      Px                   0.653     0.653     0.000
      P    10      Py                   0.657     0.657    -0.000
      P    10      Pz                   0.658     0.658    -0.000
      P    11      S                    0.881     0.881    -0.000
      P    11      Px                   0.652     0.652    -0.000
      P    11      Py                   0.632     0.632    -0.000
      P    11      Pz                   0.652     0.652    -0.000
      P    12      S                    0.869     0.869     0.000
      P    12      Px                   0.655     0.655    -0.000
      P    12      Py                   0.655     0.655    -0.000
      P    12      Pz                   0.655     0.655    -0.000
      P    13      S                    0.868     0.868    -0.000
      P    13      Px                   0.658     0.658    -0.000
      P    13      Py                   0.657     0.657    -0.000
      P    13      Pz                   0.653     0.653    -0.000
      P    14      S                    0.866     0.866     0.000
      P    14      Px                   0.654     0.654     0.000
      P    14      Py                   0.658     0.658    -0.000
      P    14      Pz                   0.658     0.658    -0.000
      P    15      S                    0.868     0.868    -0.000
      P    15      Px                   0.658     0.658    -0.000
      P    15      Py                   0.653     0.653    -0.000
      P    15      Pz                   0.657     0.657    -0.000
      P    16      S                    0.868     0.868    -0.000
      P    16      Px                   0.657     0.657    -0.000
      P    16      Py                   0.657     0.657     0.000
      P    16      Pz                   0.657     0.657     0.000
      P    17      S                    0.868     0.868     0.000
      P    17      Px                   0.655     0.655     0.000
      P    17      Py                   0.657     0.657    -0.000
      P    17      Pz                   0.655     0.655    -0.000
      P    18      S                    0.878     0.878     0.000
      P    18      Px                   0.638     0.638    -0.000
      P    18      Py                   0.649     0.649    -0.000
      P    18      Pz                   0.649     0.649    -0.000
      P    19      S                    0.868     0.868    -0.000
      P    19      Px                   0.655     0.655     0.000
      P    19      Py                   0.655     0.655     0.000
      P    19      Pz                   0.657     0.657    -0.000
      P    20      S                    0.868     0.868     0.000
      P    20      Px                   0.656     0.656    -0.000
      P    20      Py                   0.656     0.656    -0.000
      P    20      Pz                   0.656     0.656    -0.000
      P    21      S                    0.868     0.868    -0.000
      P    21      Px                   0.657     0.657     0.000
      P    21      Py                   0.658     0.658    -0.000
      P    21      Pz                   0.653     0.653    -0.000
      P    22      S                    0.868     0.868     0.000
      P    22      Px                   0.655     0.655     0.000
      P    22      Py                   0.657     0.657    -0.000
      P    22      Pz                   0.655     0.655    -0.000
      P    23      S                    0.867     0.867    -0.000
      P    23      Px                   0.658     0.658    -0.000
      P    23      Py                   0.654     0.654     0.000
      P    23      Pz                   0.658     0.658    -0.000
      P    24      S                    0.868     0.868    -0.000
      P    24      Px                   0.656     0.656    -0.000
      P    24      Py                   0.656     0.656    -0.000
      P    24      Pz                   0.656     0.656     0.000
      P    25      S                    0.867     0.867    -0.000
      P    25      Px                   0.658     0.658    -0.000
      P    25      Py                   0.658     0.658    -0.000
      P    25      Pz                   0.654     0.654     0.000
      P    26      S                    0.868     0.868     0.000
      P    26      Px                   0.655     0.655     0.000
      P    26      Py                   0.655     0.655    -0.000
      P    26      Pz                   0.657     0.657    -0.000
      P    27      S                    0.868     0.868    -0.000
      P    27      Px                   0.657     0.657    -0.000
      P    27      Py                   0.653     0.653     0.000
      P    27      Pz                   0.658     0.658    -0.000
      P    28      S                    0.868     0.868    -0.000
      P    28      Px                   0.656     0.656    -0.000
      P    28      Py                   0.656     0.656     0.000
      P    28      Pz                   0.656     0.656    -0.000
      P    29      S                    0.866     0.866    -0.000
      P    29      Px                   0.658     0.658     0.000
      P    29      Py                   0.658     0.658    -0.000
      P    29      Pz                   0.654     0.654     0.000
      P    30      S                    0.867     0.867    -0.000
      P    30      Px                   0.654     0.654     0.000
      P    30      Py                   0.658     0.658    -0.000
      P    30      Pz                   0.658     0.658    -0.000
      P    31      S                    0.866     0.866    -0.000
      P    31      Px                   0.658     0.658    -0.000
      P    31      Py                   0.654     0.654     0.000
      P    31      Pz                   0.658     0.658    -0.000
      P    32      S                    0.869     0.869     0.000
      P    32      Px                   0.655     0.655    -0.000
      P    32      Py                   0.655     0.655    -0.000
      P    32      Pz                   0.655     0.655    -0.000
     In     1      Dzz                  1.000     1.000    -0.000
     In     1      Dzy                  0.998     0.998    -0.000
     In     1      Dzx                  0.998     0.998    -0.000
     In     1      Dxx-yy               1.000     1.000     0.000
     In     1      Dxy                  0.998     0.998    -0.000
     In     1      S                    0.699     0.699     0.000
     In     1      Px                   0.236     0.236    -0.000
     In     1      Py                   0.242     0.242    -0.000
     In     1      Pz                   0.242     0.242    -0.000
     In     1      S                   -0.220    -0.220    -0.000
     In     2      Dzz                  1.000     1.000    -0.000
     In     2      Dzy                  0.998     0.998    -0.000
     In     2      Dzx                  0.998     0.998    -0.000
     In     2      Dxx-yy               1.000     1.000     0.000
     In     2      Dxy                  0.998     0.998    -0.000
     In     2      S                    0.699     0.699     0.000
     In     2      Px                   0.242     0.242    -0.000
     In     2      Py                   0.242     0.242    -0.000
     In     2      Pz                   0.236     0.236     0.000
     In     2      S                   -0.220    -0.220    -0.000
     In     3      Dzz                  1.000     1.000    -0.000
     In     3      Dzy                  0.998     0.998    -0.000
     In     3      Dzx                  0.998     0.998    -0.000
     In     3      Dxx-yy               1.000     1.000    -0.000
     In     3      Dxy                  0.998     0.998    -0.000
     In     3      S                    0.692     0.692     0.000
     In     3      Px                   0.247     0.247    -0.000
     In     3      Py                   0.247     0.247    -0.000
     In     3      Pz                   0.247     0.247     0.000
     In     3      S                   -0.233    -0.233    -0.000
     In     4      Dzz                  1.000     1.000    -0.000
     In     4      Dzy                  0.998     0.998    -0.000
     In     4      Dzx                  0.998     0.998    -0.000
     In     4      Dxx-yy               1.000     1.000     0.000
     In     4      Dxy                  0.998     0.998    -0.000
     In     4      S                    0.699     0.699     0.000
     In     4      Px                   0.242     0.242     0.000
     In     4      Py                   0.236     0.236     0.000
     In     4      Pz                   0.242     0.242    -0.000
     In     4      S                   -0.220    -0.220    -0.000
     In     5      Dzz                  1.000     1.000    -0.000
     In     5      Dzy                  0.999     0.999    -0.000
     In     5      Dzx                  0.998     0.998     0.000
     In     5      Dxx-yy               1.000     1.000     0.000
     In     5      Dxy                  0.998     0.998     0.000
     In     5      S                    0.714     0.714     0.000
     In     5      Px                   0.245     0.245     0.000
     In     5      Py                   0.242     0.242    -0.000
     In     5      Pz                   0.238     0.238     0.000
     In     5      S                   -0.263    -0.263     0.000
     In     6      Dzz                  1.000     1.000     0.000
     In     6      Dzy                  0.998     0.998    -0.000
     In     6      Dzx                  0.998     0.998    -0.000
     In     6      Dxx-yy               1.000     1.000    -0.000
     In     6      Dxy                  0.998     0.998     0.000
     In     6      S                    0.716     0.716    -0.000
     In     6      Px                   0.243     0.243     0.000
     In     6      Py                   0.243     0.243     0.000
     In     6      Pz                   0.238     0.238     0.000
     In     6      S                   -0.267    -0.267    -0.000
     In     7      Dzz                  1.000     1.000    -0.000
     In     7      Dzy                  0.998     0.998    -0.000
     In     7      Dzx                  0.998     0.998    -0.000
     In     7      Dxx-yy               1.000     1.000    -0.000
     In     7      Dxy                  0.998     0.998    -0.000
     In     7      S                    0.717     0.717    -0.000
     In     7      Px                   0.243     0.243    -0.000
     In     7      Py                   0.243     0.243    -0.000
     In     7      Pz                   0.238     0.238     0.000
     In     7      S                   -0.269    -0.269    -0.000
     In     8      Dzz                  1.000     1.000    -0.000
     In     8      Dzy                  0.998     0.998     0.000
     In     8      Dzx                  0.999     0.999    -0.000
     In     8      Dxx-yy               1.000     1.000     0.000
     In     8      Dxy                  0.998     0.998     0.000
     In     8      S                    0.714     0.714    -0.000
     In     8      Px                   0.242     0.242    -0.000
     In     8      Py                   0.245     0.245     0.000
     In     8      Pz                   0.238     0.238     0.000
     In     8      S                   -0.263    -0.263     0.000
     In     9      Dzz                  1.000     1.000     0.000
     In     9      Dzy                  0.999     0.999    -0.000
     In     9      Dzx                  0.998     0.998     0.000
     In     9      Dxx-yy               1.000     1.000     0.000
     In     9      Dxy                  0.998     0.998    -0.000
     In     9      S                    0.714     0.714    -0.000
     In     9      Px                   0.245     0.245     0.000
     In     9      Py                   0.238     0.238    -0.000
     In     9      Pz                   0.242     0.242    -0.000
     In     9      S                   -0.263    -0.263     0.000
     In    10      Dzz                  1.000     1.000    -0.000
     In    10      Dzy                  0.998     0.998    -0.000
     In    10      Dzx                  0.998     0.998     0.000
     In    10      Dxx-yy               1.000     1.000     0.000
     In    10      Dxy                  0.999     0.999    -0.000
     In    10      S                    0.714     0.714    -0.000
     In    10      Px                   0.242     0.242    -0.000
     In    10      Py                   0.238     0.238     0.000
     In    10      Pz                   0.245     0.245     0.000
     In    10      S                   -0.263    -0.263     0.000
     In    11      Dzz                  1.000     1.000     0.000
     In    11      Dzy                  0.998     0.998    -0.000
     In    11      Dzx                  0.998     0.998    -0.000
     In    11      Dxx-yy               1.000     1.000    -0.000
     In    11      Dxy                  0.998     0.998    -0.000
     In    11      S                    0.717     0.717    -0.000
     In    11      Px                   0.243     0.243    -0.000
     In    11      Py                   0.238     0.238     0.000
     In    11      Pz                   0.243     0.243    -0.000
     In    11      S                   -0.269    -0.269    -0.000
     In    12      Dzz                  1.000     1.000    -0.000
     In    12      Dzy                  0.998     0.998    -0.000
     In    12      Dzx                  0.998     0.998     0.000
     In    12      Dxx-yy               1.000     1.000     0.000
     In    12      Dxy                  0.998     0.998    -0.000
     In    12      S                    0.716     0.716     0.000
     In    12      Px                   0.243     0.243     0.000
     In    12      Py                   0.238     0.238     0.000
     In    12      Pz                   0.243     0.243     0.000
     In    12      S                   -0.267    -0.267    -0.000
     In    13      Dzz                  1.000     1.000    -0.000
     In    13      Dzy                  0.998     0.998    -0.000
     In    13      Dzx                  0.998     0.998    -0.000
     In    13      Dxx-yy               1.000     1.000     0.000
     In    13      Dxy                  0.998     0.998    -0.000
     In    13      S                    0.715     0.715    -0.000
     In    13      Px                   0.244     0.244    -0.000
     In    13      Py                   0.241     0.241     0.000
     In    13      Pz                   0.241     0.241     0.000
     In    13      S                   -0.264    -0.264    -0.000
     In    14      Dzz                  1.000     1.000    -0.000
     In    14      Dzy                  0.998     0.998     0.000
     In    14      Dzx                  0.998     0.998     0.000
     In    14      Dxx-yy               1.000     1.000     0.000
     In    14      Dxy                  0.998     0.998    -0.000
     In    14      S                    0.716     0.716     0.000
     In    14      Px                   0.247     0.247     0.000
     In    14      Py                   0.240     0.240    -0.000
     In    14      Pz                   0.239     0.239     0.000
     In    14      S                   -0.262    -0.262     0.000
     In    15      Dzz                  1.000     1.000    -0.000
     In    15      Dzy                  0.998     0.998     0.000
     In    15      Dzx                  0.998     0.998    -0.000
     In    15      Dxx-yy               1.000     1.000    -0.000
     In    15      Dxy                  0.998     0.998    -0.000
     In    15      S                    0.715     0.715     0.000
     In    15      Px                   0.245     0.245     0.000
     In    15      Py                   0.240     0.240     0.000
     In    15      Pz                   0.240     0.240    -0.000
     In    15      S                   -0.265    -0.266     0.000
     In    16      Dzz                  1.000     1.000    -0.000
     In    16      Dzy                  0.998     0.998     0.000
     In    16      Dzx                  0.998     0.998     0.000
     In    16      Dxx-yy               1.000     1.000     0.000
     In    16      Dxy                  0.998     0.998     0.000
     In    16      S                    0.716     0.716     0.000
     In    16      Px                   0.247     0.247     0.000
     In    16      Py                   0.239     0.239     0.000
     In    16      Pz                   0.240     0.240     0.000
     In    16      S                   -0.262    -0.262    -0.000
     In    17      Dzz                  1.000     1.000    -0.000
     In    17      Dzy                  0.998     0.998     0.000
     In    17      Dzx                  0.998     0.998    -0.000
     In    17      Dxx-yy               1.000     1.000    -0.000
     In    17      Dxy                  0.998     0.998    -0.000
     In    17      S                    0.716     0.716     0.000
     In    17      Px                   0.238     0.238     0.000
     In    17      Py                   0.243     0.243     0.000
     In    17      Pz                   0.243     0.243     0.000
     In    17      S                   -0.267    -0.267     0.000
     In    18      Dzz                  1.000     1.000    -0.000
     In    18      Dzy                  0.998     0.998    -0.000
     In    18      Dzx                  0.998     0.998     0.000
     In    18      Dxx-yy               1.000     1.000     0.000
     In    18      Dxy                  0.999     0.999     0.000
     In    18      S                    0.714     0.714     0.000
     In    18      Px                   0.238     0.238     0.000
     In    18      Py                   0.242     0.242    -0.000
     In    18      Pz                   0.245     0.245     0.000
     In    18      S                   -0.263    -0.263     0.000
     In    19      Dzz                  1.000     1.000    -0.000
     In    19      Dzy                  0.998     0.998    -0.000
     In    19      Dzx                  0.998     0.998    -0.000
     In    19      Dxx-yy               1.000     1.000     0.000
     In    19      Dxy                  0.998     0.998    -0.000
     In    19      S                    0.717     0.717    -0.000
     In    19      Px                   0.238     0.238     0.000
     In    19      Py                   0.243     0.243     0.000
     In    19      Pz                   0.243     0.243     0.000
     In    19      S                   -0.269    -0.269    -0.000
     In    20      Dzz                  1.000     1.000    -0.000
     In    20      Dzy                  0.998     0.998    -0.000
     In    20      Dzx                  0.999     0.999    -0.000
     In    20      Dxx-yy               1.000     1.000     0.000
     In    20      Dxy                  0.998     0.998     0.000
     In    20      S                    0.714     0.714     0.000
     In    20      Px                   0.238     0.238     0.000
     In    20      Py                   0.245     0.245     0.000
     In    20      Pz                   0.242     0.242    -0.000
     In    20      S                   -0.263    -0.263     0.000
     In    21      Dzz                  1.000     1.000    -0.000
     In    21      Dzy                  0.998     0.998     0.000
     In    21      Dzx                  0.998     0.998     0.000
     In    21      Dxx-yy               1.000     1.000    -0.000
     In    21      Dxy                  0.998     0.998    -0.000
     In    21      S                    0.716     0.716     0.000
     In    21      Px                   0.239     0.239    -0.000
     In    21      Py                   0.247     0.247     0.000
     In    21      Pz                   0.240     0.240     0.000
     In    21      S                   -0.262    -0.262     0.000
     In    22      Dzz                  1.000     1.000     0.000
     In    22      Dzy                  0.998     0.998     0.000
     In    22      Dzx                  0.998     0.998     0.000
     In    22      Dxx-yy               1.000     1.000     0.000
     In    22      Dxy                  0.998     0.998     0.000
     In    22      S                    0.716     0.716     0.000
     In    22      Px                   0.240     0.240    -0.000
     In    22      Py                   0.247     0.247     0.000
     In    22      Pz                   0.239     0.239    -0.000
     In    22      S                   -0.262    -0.262     0.000
     In    23      Dzz                  1.000     1.000    -0.000
     In    23      Dzy                  0.998     0.998     0.000
     In    23      Dzx                  0.998     0.998    -0.000
     In    23      Dxx-yy               1.000     1.000    -0.000
     In    23      Dxy                  0.998     0.998    -0.000
     In    23      S                    0.715     0.715     0.000
     In    23      Px                   0.240     0.240    -0.000
     In    23      Py                   0.245     0.245     0.000
     In    23      Pz                   0.240     0.240    -0.000
     In    23      S                   -0.266    -0.266     0.000
     In    24      Dzz                  1.000     1.000    -0.000
     In    24      Dzy                  0.998     0.998    -0.000
     In    24      Dzx                  0.998     0.998    -0.000
     In    24      Dxx-yy               1.000     1.000     0.000
     In    24      Dxy                  0.998     0.998    -0.000
     In    24      S                    0.715     0.715     0.000
     In    24      Px                   0.241     0.241     0.000
     In    24      Py                   0.244     0.244    -0.000
     In    24      Pz                   0.241     0.241     0.000
     In    24      S                   -0.264    -0.264    -0.000
     In    25      Dzz                  0.999     0.999    -0.000
     In    25      Dzy                  0.998     0.998    -0.000
     In    25      Dzx                  0.998     0.998    -0.000
     In    25      Dxx-yy               1.000     1.000    -0.000
     In    25      Dxy                  0.998     0.998     0.000
     In    25      S                    0.716     0.716     0.000
     In    25      Px                   0.239     0.239    -0.000
     In    25      Py                   0.240     0.240     0.000
     In    25      Pz                   0.247     0.247     0.000
     In    25      S                   -0.262    -0.262     0.000
     In    26      Dzz                  1.000     1.000     0.000
     In    26      Dzy                  0.998     0.998    -0.000
     In    26      Dzx                  0.998     0.998    -0.000
     In    26      Dxx-yy               1.000     1.000    -0.000
     In    26      Dxy                  0.998     0.998     0.000
     In    26      S                    0.715     0.715    -0.000
     In    26      Px                   0.241     0.241     0.000
     In    26      Py                   0.241     0.241     0.000
     In    26      Pz                   0.244     0.244    -0.000
     In    26      S                   -0.264    -0.264    -0.000
     In    27      Dzz                  1.000     1.000    -0.000
     In    27      Dzy                  0.998     0.998    -0.000
     In    27      Dzx                  0.998     0.998    -0.000
     In    27      Dxx-yy               1.000     1.000    -0.000
     In    27      Dxy                  0.998     0.998     0.000
     In    27      S                    0.715     0.715    -0.000
     In    27      Px                   0.240     0.240    -0.000
     In    27      Py                   0.240     0.240    -0.000
     In    27      Pz                   0.245     0.245     0.000
     In    27      S                   -0.266    -0.266     0.000
     In    28      Dzz                  0.999     0.999     0.000
     In    28      Dzy                  0.998     0.998     0.000
     In    28      Dzx                  0.998     0.998    -0.000
     In    28      Dxx-yy               1.000     1.000    -0.000
     In    28      Dxy                  0.998     0.998     0.000
     In    28      S                    0.716     0.716    -0.000
     In    28      Px                   0.240     0.240    -0.000
     In    28      Py                   0.239     0.239     0.000
     In    28      Pz                   0.247     0.247    -0.000
     In    28      S                   -0.262    -0.262    -0.000
     In    29      Dzz                  1.000     1.000     0.000
     In    29      Dzy                  0.998     0.998    -0.000
     In    29      Dzx                  0.998     0.998     0.000
     In    29      Dxx-yy               1.000     1.000    -0.000
     In    29      Dxy                  0.998     0.998     0.000
     In    29      S                    0.714     0.714    -0.000
     In    29      Px                   0.242     0.242    -0.000
     In    29      Py                   0.241     0.241    -0.000
     In    29      Pz                   0.241     0.241    -0.000
     In    29      S                   -0.264    -0.264     0.000
     In    30      Dzz                  1.000     1.000    -0.000
     In    30      Dzy                  0.998     0.998     0.000
     In    30      Dzx                  0.998     0.998     0.000
     In    30      Dxx-yy               1.000     1.000    -0.000
     In    30      Dxy                  0.998     0.998    -0.000
     In    30      S                    0.714     0.714    -0.000
     In    30      Px                   0.241     0.241    -0.000
     In    30      Py                   0.241     0.241    -0.000
     In    30      Pz                   0.242     0.242    -0.000
     In    30      S                   -0.264    -0.264     0.000
     In    31      Dzz                  1.000     1.000    -0.000
     In    31      Dzy                  0.998     0.998     0.000
     In    31      Dzx                  0.998     0.998     0.000
     In    31      Dxx-yy               1.000     1.000    -0.000
     In    31      Dxy                  0.998     0.998     0.000
     In    31      S                    0.714     0.714    -0.000
     In    31      Px                   0.241     0.241    -0.000
     In    31      Py                   0.241     0.241     0.000
     In    31      Pz                   0.241     0.241     0.000
     In    31      S                   -0.265    -0.265    -0.000
     In    32      Dzz                  1.000     1.000    -0.000
     In    32      Dzy                  0.998     0.998     0.000
     In    32      Dzx                  0.998     0.998    -0.000
     In    32      Dxx-yy               1.000     1.000    -0.000
     In    32      Dxy                  0.998     0.998     0.000
     In    32      S                    0.714     0.714    -0.000
     In    32      Px                   0.241     0.241    -0.000
     In    32      Py                   0.242     0.242    -0.000
     In    32      Pz                   0.241     0.241    -0.000
     In    32      S                   -0.264    -0.264    -0.000
     In    33      Dzz                  0.999     0.999     0.000
     In    33      Dzy                  0.998     0.998    -0.000
     In    33      Dzx                  0.998     0.998     0.000
     In    33      Dxx-yy               0.999     0.999     0.000
     In    33      Dxy                  0.998     0.998    -0.000
     In    33      S                    0.750     0.750     0.000
     In    33      Px                   0.198     0.198     0.000
     In    33      Py                   0.198     0.198    -0.000
     In    33      Pz                   0.198     0.198    -0.000
     In    33      S                   -0.002    -0.003     0.000
  ---------------------------------------------------------------
                           Total:     294.500   294.500     0.000
  ---------------------------------------------------------------

     Atomic Populations (Mulliken)
     -----------------------------
Species          Ion Spin      s       p       d       f      Total   Charge(e)   Spin(hbar/2)
==============================================================================================
  P               1   up:     0.878   1.937   0.000   0.000   2.815    -0.630       -0.000
                  1   dn:     0.878   1.937   0.000   0.000   2.815
  P               2   up:     0.881   1.936   0.000   0.000   2.817    -0.635       -0.000
                  2   dn:     0.881   1.936   0.000   0.000   2.818
  P               3   up:     0.878   1.937   0.000   0.000   2.815    -0.630       -0.000
                  3   dn:     0.878   1.937   0.000   0.000   2.815
  P               4   up:     0.868   1.968   0.000   0.000   2.836    -0.672       -0.000
                  4   dn:     0.868   1.968   0.000   0.000   2.836
  P               5   up:     0.881   1.936   0.000   0.000   2.817    -0.635       -0.000
                  5   dn:     0.881   1.936   0.000   0.000   2.818
  P               6   up:     0.868   1.968   0.000   0.000   2.836    -0.672       -0.000
                  6   dn:     0.868   1.968   0.000   0.000   2.836
  P               7   up:     0.868   1.967   0.000   0.000   2.835    -0.671       -0.000
                  7   dn:     0.868   1.967   0.000   0.000   2.835
  P               8   up:     0.869   1.965   0.000   0.000   2.834    -0.668       -0.000
                  8   dn:     0.869   1.965   0.000   0.000   2.834
  P               9   up:     0.868   1.967   0.000   0.000   2.835    -0.671       -0.000
                  9   dn:     0.868   1.967   0.000   0.000   2.835
  P              10   up:     0.868   1.968   0.000   0.000   2.836    -0.672       -0.000
                 10   dn:     0.868   1.968   0.000   0.000   2.836
  P              11   up:     0.881   1.936   0.000   0.000   2.817    -0.635       -0.000
                 11   dn:     0.881   1.936   0.000   0.000   2.818
  P              12   up:     0.869   1.965   0.000   0.000   2.834    -0.668       -0.000
                 12   dn:     0.869   1.965   0.000   0.000   2.834
  P              13   up:     0.868   1.968   0.000   0.000   2.836    -0.672       -0.000
                 13   dn:     0.868   1.968   0.000   0.000   2.836
  P              14   up:     0.866   1.971   0.000   0.000   2.837    -0.674       -0.000
                 14   dn:     0.866   1.971   0.000   0.000   2.837
  P              15   up:     0.868   1.968   0.000   0.000   2.836    -0.672       -0.000
                 15   dn:     0.868   1.968   0.000   0.000   2.836
  P              16   up:     0.868   1.970   0.000   0.000   2.837    -0.675       -0.000
                 16   dn:     0.868   1.970   0.000   0.000   2.837
  P              17   up:     0.868   1.967   0.000   0.000   2.835    -0.671       -0.000
                 17   dn:     0.868   1.967   0.000   0.000   2.835
  P              18   up:     0.878   1.937   0.000   0.000   2.815    -0.630       -0.000
                 18   dn:     0.878   1.937   0.000   0.000   2.815
  P              19   up:     0.868   1.967   0.000   0.000   2.835    -0.671       -0.000
                 19   dn:     0.868   1.967   0.000   0.000   2.835
  P              20   up:     0.868   1.967   0.000   0.000   2.836    -0.672       -0.000
                 20   dn:     0.868   1.967   0.000   0.000   2.836
  P              21   up:     0.868   1.968   0.000   0.000   2.836    -0.672       -0.000
                 21   dn:     0.868   1.968   0.000   0.000   2.836
  P              22   up:     0.868   1.967   0.000   0.000   2.835    -0.671       -0.000
                 22   dn:     0.868   1.967   0.000   0.000   2.835
  P              23   up:     0.867   1.971   0.000   0.000   2.837    -0.675       -0.000
                 23   dn:     0.867   1.971   0.000   0.000   2.837
  P              24   up:     0.868   1.968   0.000   0.000   2.836    -0.672       -0.000
                 24   dn:     0.868   1.968   0.000   0.000   2.836
  P              25   up:     0.867   1.971   0.000   0.000   2.837    -0.675       -0.000
                 25   dn:     0.867   1.971   0.000   0.000   2.837
  P              26   up:     0.868   1.967   0.000   0.000   2.835    -0.671       -0.000
                 26   dn:     0.868   1.967   0.000   0.000   2.835
  P              27   up:     0.868   1.968   0.000   0.000   2.836    -0.672       -0.000
                 27   dn:     0.868   1.968   0.000   0.000   2.836
  P              28   up:     0.868   1.968   0.000   0.000   2.836    -0.672       -0.000
                 28   dn:     0.868   1.968   0.000   0.000   2.836
  P              29   up:     0.866   1.971   0.000   0.000   2.837    -0.674        0.000
                 29   dn:     0.866   1.971   0.000   0.000   2.837
  P              30   up:     0.867   1.971   0.000   0.000   2.837    -0.675       -0.000
                 30   dn:     0.867   1.971   0.000   0.000   2.837
  P              31   up:     0.866   1.971   0.000   0.000   2.837    -0.674       -0.000
                 31   dn:     0.866   1.971   0.000   0.000   2.837
  P              32   up:     0.869   1.965   0.000   0.000   2.834    -0.668       -0.000
                 32   dn:     0.869   1.965   0.000   0.000   2.834
  In              1   up:     0.479   0.721   4.994   0.000   6.194     0.612        0.000
                  1   dn:     0.479   0.721   4.994   0.000   6.194
  In              2   up:     0.479   0.721   4.994   0.000   6.194     0.612        0.000
                  2   dn:     0.479   0.721   4.994   0.000   6.194
  In              3   up:     0.460   0.742   4.995   0.000   6.196     0.608        0.000
                  3   dn:     0.460   0.742   4.995   0.000   6.196
  In              4   up:     0.479   0.721   4.994   0.000   6.194     0.613        0.000
                  4   dn:     0.479   0.721   4.994   0.000   6.194
  In              5   up:     0.451   0.725   4.994   0.000   6.170     0.660        0.000
                  5   dn:     0.451   0.725   4.994   0.000   6.170
  In              6   up:     0.449   0.725   4.994   0.000   6.168     0.664       -0.000
                  6   dn:     0.449   0.725   4.994   0.000   6.168
  In              7   up:     0.448   0.725   4.994   0.000   6.168     0.664       -0.000
                  7   dn:     0.448   0.725   4.994   0.000   6.168
  In              8   up:     0.451   0.725   4.994   0.000   6.170     0.660        0.000
                  8   dn:     0.451   0.725   4.994   0.000   6.170
  In              9   up:     0.451   0.725   4.994   0.000   6.170     0.660        0.000
                  9   dn:     0.451   0.725   4.994   0.000   6.170
  In             10   up:     0.451   0.725   4.994   0.000   6.170     0.660        0.000
                 10   dn:     0.451   0.725   4.994   0.000   6.170
  In             11   up:     0.448   0.725   4.994   0.000   6.168     0.664       -0.000
                 11   dn:     0.448   0.725   4.994   0.000   6.168
  In             12   up:     0.449   0.725   4.994   0.000   6.168     0.664        0.000
                 12   dn:     0.449   0.725   4.994   0.000   6.168
  In             13   up:     0.450   0.725   4.994   0.000   6.170     0.660       -0.000
                 13   dn:     0.450   0.725   4.994   0.000   6.170
  In             14   up:     0.453   0.726   4.994   0.000   6.174     0.653        0.000
                 14   dn:     0.453   0.726   4.994   0.000   6.174
  In             15   up:     0.449   0.725   4.994   0.000   6.168     0.664        0.000
                 15   dn:     0.449   0.725   4.994   0.000   6.168
  In             16   up:     0.453   0.726   4.994   0.000   6.174     0.653       -0.000
                 16   dn:     0.453   0.726   4.994   0.000   6.174
  In             17   up:     0.449   0.725   4.994   0.000   6.168     0.664        0.000
                 17   dn:     0.449   0.725   4.994   0.000   6.168
  In             18   up:     0.451   0.725   4.994   0.000   6.170     0.660        0.000
                 18   dn:     0.451   0.725   4.994   0.000   6.170
  In             19   up:     0.448   0.725   4.994   0.000   6.168     0.664       -0.000
                 19   dn:     0.448   0.725   4.994   0.000   6.168
  In             20   up:     0.451   0.725   4.994   0.000   6.170     0.660        0.000
                 20   dn:     0.451   0.725   4.994   0.000   6.170
  In             21   up:     0.453   0.726   4.994   0.000   6.174     0.653        0.000
                 21   dn:     0.453   0.726   4.994   0.000   6.174
  In             22   up:     0.453   0.726   4.994   0.000   6.174     0.653        0.000
                 22   dn:     0.453   0.726   4.994   0.000   6.174
  In             23   up:     0.449   0.725   4.994   0.000   6.168     0.664       -0.000
                 23   dn:     0.449   0.725   4.994   0.000   6.168
  In             24   up:     0.450   0.725   4.994   0.000   6.170     0.660       -0.000
                 24   dn:     0.450   0.725   4.994   0.000   6.170
  In             25   up:     0.453   0.726   4.994   0.000   6.174     0.653        0.000
                 25   dn:     0.453   0.726   4.994   0.000   6.174
  In             26   up:     0.450   0.725   4.994   0.000   6.170     0.660       -0.000
                 26   dn:     0.450   0.725   4.994   0.000   6.170
  In             27   up:     0.449   0.725   4.994   0.000   6.168     0.664        0.000
                 27   dn:     0.449   0.725   4.994   0.000   6.168
  In             28   up:     0.453   0.726   4.994   0.000   6.174     0.653       -0.000
                 28   dn:     0.453   0.726   4.994   0.000   6.174
  In             29   up:     0.450   0.724   4.994   0.000   6.168     0.664       -0.000
                 29   dn:     0.450   0.724   4.994   0.000   6.168
  In             30   up:     0.450   0.724   4.994   0.000   6.168     0.664       -0.000
                 30   dn:     0.450   0.724   4.994   0.000   6.168
  In             31   up:     0.449   0.722   4.995   0.000   6.165     0.669       -0.000
                 31   dn:     0.449   0.722   4.995   0.000   6.165
  In             32   up:     0.450   0.724   4.994   0.000   6.168     0.664       -0.000
                 32   dn:     0.450   0.724   4.994   0.000   6.168
  In             33   up:     0.748   0.595   4.993   0.000   6.336     0.329        0.001
                 33   dn:     0.747   0.595   4.993   0.000   6.335
==============================================================================================

                 Bond                   Population        Spin       Length (A)
================================================================================
              P 32 -- In 1                   0.83         0.00          2.46431
              P 12 -- In 2                   0.83         0.00          2.46431
              P 8  -- In 4                   0.83         0.00          2.46431
              P 20 -- In 3                   0.76         0.00          2.50971
              P 31 -- In 22                  0.66        -0.00          2.52609
              P 29 -- In 28                  0.66        -0.00          2.52609
              P 29 -- In 25                  0.66        -0.00          2.52609
              P 14 -- In 14                  0.66        -0.00          2.52609
              P 31 -- In 21                  0.66        -0.00          2.52609
              P 14 -- In 16                  0.66        -0.00          2.52609
              P 23 -- In 23                  0.67         0.00          2.53367
              P 25 -- In 27                  0.67         0.00          2.53367
              P 30 -- In 15                  0.67         0.00          2.53367
              P 30 -- In 13                  0.66        -0.00          2.53922
              P 25 -- In 26                  0.66         0.00          2.53922
              P 23 -- In 24                  0.66         0.00          2.53922
              P 15 -- In 15                  0.65         0.00          2.54178
              P 13 -- In 15                  0.65         0.00          2.54178
              P 27 -- In 27                  0.65         0.00          2.54178
              P 10 -- In 27                  0.65         0.00          2.54178
              P 6  -- In 23                  0.65         0.00          2.54178
              P 21 -- In 23                  0.65         0.00          2.54178
              P 27 -- In 28                  0.65         0.00          2.54236
              P 15 -- In 16                  0.65         0.00          2.54236
              P 21 -- In 22                  0.65         0.00          2.54236
              P 6  -- In 21                  0.65         0.00          2.54236
              P 13 -- In 14                  0.65         0.00          2.54236
              P 10 -- In 25                  0.65         0.00          2.54236
              P 20 -- In 26                  0.63        -0.00          2.54260
              P 20 -- In 24                  0.63         0.00          2.54260
              P 20 -- In 13                  0.63        -0.00          2.54260
              P 17 -- In 21                  0.65        -0.00          2.54269
              P 22 -- In 22                  0.65        -0.00          2.54269
              P 9  -- In 16                  0.65         0.00          2.54269
              P 26 -- In 28                  0.65         0.00          2.54269
              P 19 -- In 25                  0.65         0.00          2.54269
              P 7  -- In 14                  0.65         0.00          2.54269
              P 19 -- In 26                  0.64        -0.00          2.54553
              P 17 -- In 24                  0.64        -0.00          2.54553
              P 9  -- In 13                  0.64        -0.00          2.54553
              P 7  -- In 13                  0.64         0.00          2.54553
              P 26 -- In 26                  0.64        -0.00          2.54553
              P 22 -- In 24                  0.64        -0.00          2.54553
              P 32 -- In 28                  0.60        -0.00          2.54611
              P 8  -- In 25                  0.60        -0.00          2.54611
              P 32 -- In 22                  0.60        -0.00          2.54611
              P 12 -- In 21                  0.60         0.00          2.54611
              P 12 -- In 16                  0.60        -0.00          2.54611
              P 8  -- In 14                  0.60        -0.00          2.54611
              P 11 -- In 12                  0.64        -0.00          2.54708
              P 5  -- In 6                   0.64         0.00          2.54708
              P 2  -- In 17                  0.64         0.00          2.54708
              P 8  -- In 23                  0.62        -0.00          2.54771
              P 12 -- In 27                  0.62        -0.00          2.54771
              P 32 -- In 15                  0.62        -0.00          2.54771
              P 30 -- In 32                  0.65        -0.00          2.54900
              P 25 -- In 32                  0.65        -0.00          2.54900
              P 23 -- In 29                  0.65         0.00          2.54900
              P 30 -- In 30                  0.65        -0.00          2.54900
              P 25 -- In 29                  0.65        -0.00          2.54900
              P 23 -- In 30                  0.65         0.00          2.54900
              P 26 -- In 9                   0.65         0.00          2.54917
              P 9  -- In 10                  0.65         0.00          2.54917
              P 22 -- In 5                   0.65         0.00          2.54917
              P 19 -- In 20                  0.65         0.00          2.54917
              P 17 -- In 18                  0.65         0.00          2.54917
              P 7  -- In 8                   0.65         0.00          2.54917
              P 16 -- In 17                  0.65        -0.00          2.54963
              P 16 -- In 6                   0.65        -0.00          2.54963
              P 16 -- In 12                  0.65         0.00          2.54963
              P 11 -- In 11                  0.63        -0.00          2.55005
              P 2  -- In 19                  0.63        -0.00          2.55005
              P 5  -- In 7                   0.63        -0.00          2.55005
              P 4  -- In 29                  0.66        -0.00          2.55025
              P 24 -- In 30                  0.66        -0.00          2.55025
              P 28 -- In 32                  0.66        -0.00          2.55025
              P 31 -- In 31                  0.65        -0.00          2.55030
              P 14 -- In 31                  0.65        -0.00          2.55030
              P 29 -- In 31                  0.65        -0.00          2.55030
              P 4  -- In 19                  0.65         0.00          2.55055
              P 24 -- In 7                   0.65         0.00          2.55055
              P 28 -- In 11                  0.65         0.00          2.55055
              P 13 -- In 9                   0.64        -0.00          2.55121
              P 10 -- In 10                  0.64        -0.00          2.55121
              P 27 -- In 18                  0.64        -0.00          2.55121
              P 15 -- In 5                   0.64        -0.00          2.55121
              P 21 -- In 20                  0.64        -0.00          2.55121
              P 6  -- In 8                   0.64        -0.00          2.55121
              P 7  -- In 7                   0.64        -0.00          2.55161
              P 19 -- In 19                  0.64         0.00          2.55161
              P 26 -- In 11                  0.64        -0.00          2.55161
              P 9  -- In 11                  0.64        -0.00          2.55161
              P 22 -- In 7                   0.64        -0.00          2.55161
              P 17 -- In 19                  0.64        -0.00          2.55161
              P 31 -- In 32                  0.65         0.00          2.55207
              P 29 -- In 30                  0.65         0.00          2.55207
              P 14 -- In 29                  0.65         0.00          2.55207
              P 15 -- In 6                   0.64        -0.00          2.55239
              P 27 -- In 17                  0.64         0.00          2.55239
              P 6  -- In 6                   0.64        -0.00          2.55239
              P 21 -- In 17                  0.64        -0.00          2.55239
              P 13 -- In 12                  0.64        -0.00          2.55239
              P 10 -- In 12                  0.64        -0.00          2.55239
              P 1  -- In 5                   0.65        -0.00          2.55442
              P 18 -- In 20                  0.65        -0.00          2.55442
              P 18 -- In 18                  0.65        -0.00          2.55442
              P 3  -- In 10                  0.65         0.00          2.55442
              P 3  -- In 9                   0.65         0.00          2.55442
              P 1  -- In 8                   0.65        -0.00          2.55442
              P 16 -- In 31                  0.66         0.00          2.55664
              P 28 -- In 5                   0.64         0.00          2.55849
              P 28 -- In 18                  0.64        -0.00          2.55849
              P 24 -- In 9                   0.64        -0.00          2.55849
              P 4  -- In 10                  0.64        -0.00          2.55849
              P 24 -- In 20                  0.64        -0.00          2.55849
              P 4  -- In 8                   0.64        -0.00          2.55849
              P 18 -- In 3                   0.52         0.00          2.64357
              P 1  -- In 3                   0.52         0.00          2.64357
              P 3  -- In 3                   0.52         0.00          2.64357
              P 18 -- In 1                   0.53         0.00          2.64357
              P 1  -- In 2                   0.53         0.00          2.64357
              P 3  -- In 4                   0.53         0.00          2.64357
              P 5  -- In 1                   0.42        -0.00          2.72024
              P 2  -- In 2                   0.42        -0.00          2.72024
              P 11 -- In 2                   0.42         0.00          2.72024
              P 11 -- In 1                   0.42         0.00          2.72024
              P 5  -- In 4                   0.42         0.00          2.72024
              P 2  -- In 4                   0.42         0.00          2.72024
             In 4  -- In 33                 -0.52         0.00          2.82983
             In 2  -- In 33                 -0.52         0.00          2.82983
             In 1  -- In 33                 -0.52         0.00          2.82983
              P 5  -- In 33                  0.13         0.00          2.85548
              P 2  -- In 33                  0.13         0.00          2.85548
              P 11 -- In 33                  0.13         0.00          2.85548
             In 3  -- In 33                 -0.46        -0.00          2.86554
================================================================================

 Hirshfeld supercell size:           2           2           2
Standard grid dimensions: 240 240 240
Fine grid dimensions:     240 240 240


     Hirshfeld Analysis
     ------------------
Species   Ion     Hirshfeld Charge (e)  Spin (hbar/2)
===================================================
  P        1                -0.23       -0.00
  P        2                -0.23       -0.00
  P        3                -0.23       -0.00
  P        4                -0.24        0.00
  P        5                -0.23       -0.00
  P        6                -0.24        0.00
  P        7                -0.24       -0.00
  P        8                -0.23       -0.00
  P        9                -0.24       -0.00
  P       10                -0.24        0.00
  P       11                -0.23       -0.00
  P       12                -0.23       -0.00
  P       13                -0.24        0.00
  P       14                -0.24       -0.00
  P       15                -0.24        0.00
  P       16                -0.24        0.00
  P       17                -0.24       -0.00
  P       18                -0.23       -0.00
  P       19                -0.24       -0.00
  P       20                -0.23       -0.00
  P       21                -0.24        0.00
  P       22                -0.24       -0.00
  P       23                -0.24       -0.00
  P       24                -0.24        0.00
  P       25                -0.24       -0.00
  P       26                -0.24       -0.00
  P       27                -0.24        0.00
  P       28                -0.24        0.00
  P       29                -0.24       -0.00
  P       30                -0.24       -0.00
  P       31                -0.24       -0.00
  P       32                -0.23       -0.00
  In       1                 0.23       -0.00
  In       2                 0.23       -0.00
  In       3                 0.23        0.00
  In       4                 0.23       -0.00
  In       5                 0.23        0.00
  In       6                 0.23        0.00
  In       7                 0.23        0.00
  In       8                 0.23        0.00
  In       9                 0.23        0.00
  In      10                 0.23        0.00
  In      11                 0.23        0.00
  In      12                 0.23        0.00
  In      13                 0.23       -0.00
  In      14                 0.23       -0.00
  In      15                 0.23       -0.00
  In      16                 0.23       -0.00
  In      17                 0.23        0.00
  In      18                 0.23        0.00
  In      19                 0.23        0.00
  In      20                 0.23        0.00
  In      21                 0.23       -0.00
  In      22                 0.23       -0.00
  In      23                 0.23       -0.00
  In      24                 0.23       -0.00
  In      25                 0.23       -0.00
  In      26                 0.23       -0.00
  In      27                 0.23       -0.00
  In      28                 0.23       -0.00
  In      29                 0.24       -0.00
  In      30                 0.24       -0.00
  In      31                 0.24       -0.00
  In      32                 0.24       -0.00
  In      33                 0.09       -0.00
===================================================

 
 A BibTeX formatted list of references used in this run has been written to 
 In_Interstitial_Migration_Tetra_Octa_Singlepoints_1.bib
 
Initialisation time =     31.73 s
Calculation time    =   8527.88 s
Finalisation time   =    152.42 s
Total time          =   8712.03 s
Peak Memory Use     = 9645816 kB
 
Overall parallel efficiency rating: Poor (35%)
 
Data was distributed by:-
G-vector (3-way); efficiency rating: Poor (38%)
k-point (36-way); efficiency rating: Very good (82%)
