 +-------------------------------------------------+
 |                                                 |
 |      CCC   AA    SSS  TTTTT  EEEEE  PPPP        |
 |     C     A  A  S       T    E      P   P       |
 |     C     AAAA   SS     T    EEE    PPPP        |
 |     C     A  A     S    T    E      P           |
 |      CCC  A  A  SSS     T    EEEEE  P           |
 |                                                 |
 +-------------------------------------------------+
 |                                                 |
 | Welcome to Academic Release CASTEP version 24.1 |
 | Ab Initio Total Energy Program                  |
 |                                                 |
 | Authors:                                        |
 | M. Segall, M. Probert, C. Pickard, P. Hasnip,   |
 | S. Clark, K. Refson, J. R. Yates,               |
 | A. Bartok-Partay, M. Payne                      |
 |                                                 |
 | Contributors:                                   |
 | P. Lindan, P. Haynes, J. White, V. Milman,      |
 | N. Govind, M. Gibson, P. Tulip, V. Cocula,      |
 | B. Montanari, D. Quigley, M. Glover,            |
 | L. Bernasconi, A. Perlov, M. Plummer,           |
 | E. McNellis, J. Meyer, J. Gale, D. Jochym       |
 | J. Aarons, B. Walker, R. Gillen, D. Jones       |
 | T. Green, I. J. Bush, C. J. Armstrong,          |
 | E. J. Higgins, E. L. Brown, M. S. McFly,        |
 | J. Wilkins, B-C. Shih, P. J. P. Byrne,          |
 | R. J. Maurer, J. C. Womack, J. Dziedzic,        |
 | L. LeBlanc, T. K. Stenczel, J. Kermode,         |
 | S. Sturniolo, B. Shi, B. Durham, M. Evans,      |
 | M. J. Smith, A. Tamerus, Z. Hawkhead,           |
 | V. Ravindran, T. Hollins, S. A. Joyce,          |
 | R. T. Strong, A. M. Reilly, S. J. Donaldson     |
 |                                                 |
 | Copyright (c) 2000 - 2023                       |
 |                                                 |
 |     Distributed under license from Cambridge    |
 |     Enterprise for academic use only.           |
 |                                                 |
 | Please cite                                     |
 |                                                 |
 |     "First principles methods using CASTEP"     |
 |                                                 |
 |         Zeitschrift fuer Kristallographie       |
 |           220(5-6) pp. 567-570 (2005)           |
 |                                                 |
 | S. J. Clark, M. D. Segall, C. J. Pickard,       |
 | P. J. Hasnip, M. J. Probert, K. Refson,         |
 | M. C. Payne                                     |
 |                                                 |
 |       in all publications arising from          |
 |              your use of CASTEP                 |
 |                                                 |
 +-------------------------------------------------+
 |                                                 |
 |              http://www.castep.org              |
 |                                                 |
 +-------------------------------------------------+



 Compiled for  GNU 11.2.0 on 04-04-2024 18:39:17
 from code version 6355fd106 Castep241_branch Thu Mar 7 17:56:19 2024 +0000
 Compiler: GNU Fortran 11.2.0; Optimisation: FAST
 Comms   : MPI VERSION : CRAY MPICH version 8.1.23.14 (ANL base 3.4a2)
 MATHLIBS: default (LAPACK version 3.10.1)
 FFT Lib : fftw3 version commercial-fftw-3.3.10-sse2-avx-avx2-avx2_128
 Fundamental constants values: CODATA 2018

 Run started: Tue, 29 Jul 2025 20:49:03 +0100

 Atomic calculation performed for P: 1s2 2s2 2p6 3s2 3p3

 Converged in 47 iterations to an ae energy of -9309.074 eV

   ============================================================                
   | Pseudopotential Report - Date of generation 29-07-2025   |                
   ------------------------------------------------------------                
   | Element: P Ionic charge:  5.00 Level of theory: RSCAN    |                
   | Atomic Solver: Koelling-Harmon                           |                
   |                                                          |                
   |               Reference Electronic Structure             |                
   |         Orbital         Occupation         Energy        |                
   |            3s              2.000           -0.535        |                
   |            3p              3.000           -0.209        |                
   |                                                          |                
   |                 Pseudopotential Definition               |                
   |        Beta     l      e      Rc     scheme   norm       |                
   |          1      0   -0.535   1.807     qc      0         |                
   |          2      0    0.250   1.807     qc      0         |                
   |          3      1   -0.209   1.807     qc      0         |                
   |          4      1    0.250   1.807     qc      0         |                
   |          5      2    0.000   1.807     qc      0         |                
   |          6      2    0.250   1.807     qc      0         |                
   |         loc     3    0.000   1.807     pn      0         |                
   |                                                          |                
   | Augmentation charge Rinner = 1.263                       |                
   | Partial core correction Rc = 1.263                       |                
   ------------------------------------------------------------                
   | "3|1.8|4|4|5|30:31:32"                                   |                
   ------------------------------------------------------------                
   |      Author: Chris J. Pickard, Cambridge University      |                
   ============================================================                
 Warning: otfg_output_psp cannot write out meta-GGA pseudopotentials presently.

 Atomic calculation performed for In:
 1s2 2s2 2p6 3s2 3p6 3d10 4s2 4p6 4d10 5s2 5p1

 Converged in 84 iterations to an ae energy of -160093.328 eV

   ============================================================                
   | Pseudopotential Report - Date of generation 29-07-2025   |                
   ------------------------------------------------------------                
   | Element: In Ionic charge: 13.00 Level of theory: RSCAN   |                
   | Atomic Solver: Koelling-Harmon                           |                
   |                                                          |                
   |               Reference Electronic Structure             |                
   |         Orbital         Occupation         Energy        |                
   |            4d             10.000           -0.711        |                
   |            5s              2.000           -0.313        |                
   |            5p              1.000           -0.095        |                
   |                                                          |                
   |                 Pseudopotential Definition               |                
   |        Beta     l      e      Rc     scheme   norm       |                
   |          1      0   -0.313   2.501     qc      0         |                
   |          2      0    0.250   2.501     qc      0         |                
   |          3      1   -0.095   2.501     qc      0         |                
   |          4      1    0.250   2.501     qc      0         |                
   |          5      2   -0.711   2.207     qc      0         |                
   |          6      2    0.250   2.207     qc      0         |                
   |         loc     3    0.000   2.501     pn      0         |                
   |                                                          |                
   | Augmentation charge Rinner = 1.504                       |                
   | Partial core correction Rc = 1.504                       |                
   ------------------------------------------------------------                
   | "3|2.5|2.5|1.5|7|8|9|50:51:42U2.2U2.2"                   |                
   ------------------------------------------------------------                
   |      Author: Chris J. Pickard, Cambridge University      |                
   ============================================================                
 Warning: otfg_output_psp cannot write out meta-GGA pseudopotentials presently.

 Pseudo atomic calculation performed for P 3s2 3p3

 Converged in 23 iterations to a total energy of -208.0292 eV

 Pseudo atomic calculation performed for In 4d10 5s2 5p1

 Converged in 42 iterations to a total energy of -1747.4501 eV
 Calculation parallelised over 108 processes.
 Data is distributed by G-vector(3-way) and k-point(36-way)
 Each process may use up to 16 threads.

 ************************************ Title ************************************
 

 ***************************** General Parameters ******************************
  
 output verbosity                               : normal  (1)
 write checkpoint data to                       : In_Interstitial_Migration_Tetra_Octa_Singlepoints_1.check
 type of calculation                            : single point energy
 stress calculation                             : off
 density difference calculation                 : off
 electron localisation func (ELF) calculation   : off
 Hirshfeld analysis                             : on
 polarisation (Berry phase) analysis            : off
 molecular orbital projected DOS                : off
 deltaSCF calculation                           : off
 unlimited duration calculation
 timing information                             : on
 memory usage estimate                          : on
 write extra output files                       : on
 write final potential to formatted file        : off
 write final density to formatted file          : off
 write BibTeX reference list                    : on
 write OTFG pseudopotential files               : on
 write electrostatic potential file             : on
 write bands file                               : on
 checkpoint writing                             : off
  
 output         length unit                     : A
 output           mass unit                     : amu
 output           time unit                     : ps
 output         charge unit                     : e
 output           spin unit                     : hbar/2
 output         energy unit                     : eV
 output          force unit                     : eV/A
 output       velocity unit                     : A/ps
 output       pressure unit                     : GPa
 output     inv_length unit                     : 1/A
 output      frequency unit                     : cm-1
 output force constant unit                     : eV/A**2
 output         volume unit                     : A**3
 output   IR intensity unit                     : (D/A)**2/amu
 output         dipole unit                     : D
 output         efield unit                     : eV/A/e
 output        entropy unit                     : J/mol/K
 output    efield chi2 unit                     : pm/V
  
 wavefunctions paging                           : none
 random number generator seed                   :  204903671
 data distribution                              : optimal for this architecture
 optimization strategy                          : balance speed and memory

 *********************** Exchange-Correlation Parameters ***********************
  
 using functional                               : RSCAN
 relativistic treatment                         : Koelling-Harmon
 DFT+D: Semi-empirical dispersion correction    : off

 ************************* Pseudopotential Parameters **************************
  
 pseudopotential representation                 : reciprocal space
 <beta|phi> representation                      : reciprocal space
 spin-orbit coupling                            : off

 **************************** Basis Set Parameters *****************************
  
 plane wave basis set cut-off                   :   900.0000   eV
 size of standard grid                          :     2.0000
 size of   fine   gmax                          :    30.7390   1/A
 finite basis set correction                    : none

 **************************** Electronic Parameters ****************************
  
 number of  electrons                           :  589.0    
 net charge of system                           :  0.000    
 net spin   of system                           :  1.000    
 number of  up  spins                           :  295.0    
 number of down spins                           :  294.0    
 treating system as spin-polarized
 number of bands                                :        354

 ********************* Electronic Minimization Parameters **********************
  
 Method: Treating system as metallic with density mixing treatment of electrons,
         and number of  SD  steps               :          1
         and number of  CG  steps               :          4
  
 total energy / atom convergence tol.           : 0.1000E-07   eV
 eigen-energy convergence tolerance             : 0.2203E-08   eV
 max force / atom convergence tol.              : ignored
 convergence tolerance window                   :          3   cycles
 max. number of SCF cycles                      :        100
 number of fixed-spin iterations                :         10
 smearing scheme                                : Gaussian
 smearing width                                 : 0.2000       eV
 Fermi energy convergence tolerance             : 0.2721E-13   eV
 periodic dipole correction                     : NONE

 ************************** Density Mixing Parameters **************************
  
 density-mixing scheme                          : Pulay
 max. length of mixing history                  :         20
 charge density mixing amplitude                : 0.5000    
   spin density mixing amplitude                :  2.000    
 cut-off energy for mixing                      :  900.0       eV

 *********************** Population Analysis Parameters ************************
  
 Population analysis with cutoff                :  3.000       A
 Population analysis output                     : summary and pdos components

 *******************************************************************************
  

                           -------------------------------
                                      Unit Cell
                           -------------------------------
        Real Lattice(A)                      Reciprocal Lattice(1/A)
    11.8025500     0.0000000     0.0000000        0.532358288   0.000000000   0.000000000
     0.0000000    11.8025500     0.0000000        0.000000000   0.532358288   0.000000000
     0.0000000     0.0000000    11.8025500        0.000000000   0.000000000   0.532358288

                       Lattice parameters(A)       Cell Angles
                    a =     11.802550          alpha =   90.000000
                    b =     11.802550          beta  =   90.000000
                    c =     11.802550          gamma =   90.000000

                       Current cell volume =          1644.097416       A**3
                                   density =             2.907464   AMU/A**3
                                           =             4.827958     g/cm^3

                           -------------------------------
                                     Cell Contents
                           -------------------------------
                         Total number of ions in cell =   65
                      Total number of species in cell =    2
                        Max number of any one species =   33

            xxxxxxxxxxxxxxxxxxxxxxxxxxxxxxxxxxxxxxxxxxxxxxxxxxxxxxxxxxxx
            x  Element    Atom        Fractional coordinates of atoms  x
            x            Number           u          v          w      x
            x----------------------------------------------------------x
            x  P            1         0.129968   0.120032   0.377684   x 
            x  P            2         0.380154   0.125196   0.126052   x 
            x  P            3         0.129968   0.376828   0.120888   x 
            x  P            4         0.375755   0.375629   0.376485   x 
            x  P            5         0.124804   0.125196   0.870702   x 
            x  P            6         0.376969   0.122988   0.624309   x 
            x  P            7         0.126042   0.374173   0.624855   x 
            x  P            8         0.389877   0.384391   0.860979   x 
            x  P            9         0.126042   0.623999   0.375028   x 
            x  P           10         0.376969   0.623453   0.123844   x 
            x  P           11         0.124804   0.869846   0.126052   x 
            x  P           12         0.389877   0.860123   0.385247   x 
            x  P           13         0.127012   0.623453   0.873887   x 
            x  P           14         0.378039   0.624397   0.625253   x 
            x  P           15         0.127012   0.873031   0.624309   x 
            x  P           16         0.373883   0.876117   0.876973   x 
            x  P           17         0.626001   0.123958   0.375028   x 
            x  P           18         0.873171   0.120032   0.120888   x 
            x  P           19         0.626001   0.374173   0.124814   x 
            x  P           20         0.876224   0.373776   0.374631   x 
            x  P           21         0.626547   0.122988   0.873887   x 
            x  P           22         0.875827   0.123958   0.624855   x 
            x  P           23         0.629327   0.373485   0.621529   x 
            x  P           24         0.874371   0.375629   0.875101   x 
            x  P           25         0.629327   0.620673   0.374341   x 
            x  P           26         0.875827   0.623999   0.124814   x 
            x  P           27         0.626547   0.873031   0.123844   x 
            x  P           28         0.874371   0.874245   0.376485   x 
            x  P           29         0.625603   0.624397   0.872817   x 
            x  P           30         0.876515   0.620673   0.621529   x 
            x  P           31         0.625603   0.871961   0.625253   x 
            x  P           32         0.865609   0.860123   0.860979   x 
            x  In           1        -0.016797  -0.017881  -0.017025   x 
            x  In           2         0.267881  -0.017881   0.267653   x 
            x  In           3        -0.001004   0.251004   0.251860   x 
            x  In           4         0.267881   0.266797  -0.017025   x 
            x  In           5         0.000799  -0.001694   0.501408   x 
            x  In           6         0.250822  -0.000823   0.748985   x 
            x  In           7        -0.001492   0.251491   0.749049   x 
            x  In           8         0.251694   0.249200   0.501408   x 
            x  In           9         0.000799   0.500552  -0.000838   x 
            x  In          10         0.251694   0.500552   0.250056   x 
            x  In          11        -0.001492   0.748193   0.252348   x 
            x  In          12         0.250822   0.748129   0.000033   x 
            x  In          13         0.002349   0.497275   0.498131   x 
            x  In          14         0.250400   0.501944   0.745789   x 
            x  In          15         0.003825   0.742901   0.743757   x 
            x  In          16         0.250400   0.744933   0.502800   x 
            x  In          17         0.501871  -0.000823   0.000033   x 
            x  In          18         0.749448  -0.001694   0.250056   x 
            x  In          19         0.501807   0.251491   0.252348   x 
            x  In          20         0.749448   0.249200  -0.000838   x 
            x  In          21         0.505067  -0.000400   0.502800   x 
            x  In          22         0.748055  -0.000400   0.745789   x 
            x  In          23         0.507099   0.246175   0.743757   x 
            x  In          24         0.752725   0.247651   0.498131   x 
            x  In          25         0.505067   0.501944   0.000456   x 
            x  In          26         0.752725   0.497275   0.248507   x 
            x  In          27         0.507099   0.742901   0.247031   x 
            x  In          28         0.748055   0.744933   0.000456   x 
            x  In          29         0.502504   0.499364   0.500220   x 
            x  In          30         0.750636   0.499364   0.748352   x 
            x  In          31         0.498971   0.751029   0.751885   x 
            x  In          32         0.750636   0.747496   0.500220   x 
            x  In          33         0.139343   0.110657   0.111513   x 
            xxxxxxxxxxxxxxxxxxxxxxxxxxxxxxxxxxxxxxxxxxxxxxxxxxxxxxxxxxxx


                         No user defined ionic velocities

                           -------------------------------
                                   Details of Species
                           -------------------------------

                               Mass of species in AMU
                                    P   30.9737600
                                    In  114.8180000

                          Electric Quadrupole Moment (Barn)
                                    P    1.0000000 No Isotope Defined
                                    In    0.7700000 Isotope115

                          Files used for pseudopotentials:
                                    P 3|1.8|4|4|5|30:31:32
                                    In 3|2.5|2.5|1.5|7|8|9|50:51:42U2.2U2.2

                           -------------------------------
                              k-Points For BZ Sampling
                           -------------------------------
                       MP grid size for SCF calculation is  4  4  4
                            with an offset of   0.125  0.125  0.125
                       Number of kpoints used =            36

                           -------------------------------
                               Symmetry and Constraints
                           -------------------------------

                      Maximum deviation from symmetry =  0.00000         ANG

                      Number of symmetry operations   =           1
                      Number of ionic constraints     =           3
                      Point group of crystal =     1: C1, 1, 1
                      Space group of crystal =   160: R3m, R 3 -2"

             Set iprint > 1 for details on symmetry rotations/translations

                         Centre of mass is constrained
             Set iprint > 1 for details of linear ionic constraints

                         Number of cell constraints= 0
                         Cell constraints are:  1 2 3 4 5 6

                         External pressure/stress (GPa)
                          0.00000   0.00000   0.00000
                                    0.00000   0.00000
                                              0.00000
 
+---------------- MEMORY AND SCRATCH DISK ESTIMATES PER PROCESS --------------+
|                                                     Memory          Disk    |
| Baseline code, static data and system overhead      368.0 MB         0.0 MB |
| BLAS internal memory storage                          0.0 MB         0.0 MB |
| Model and support data                             4331.9 MB         0.0 MB |
| Electronic energy minimisation requirements        1349.7 MB         0.0 MB |
| Force calculation requirements                      127.4 MB         0.0 MB |
|                                               ----------------------------- |
| Approx. total storage required per process         6049.6 MB         0.0 MB |
|                                                                             |
| Requirements will fluctuate during execution and may exceed these estimates |
+-----------------------------------------------------------------------------+
Calculating approximate eigenstates for fixed initial Hamiltonian
Cut-off for approx. calculation is   89.988 eV
Improving approx. states at cut-off of  450.000 eV
Resetting cut-off to  900.000 eV
Calculating total energy with cut-off of  900.000 eV.
------------------------------------------------------------------------ <-- SCF
SCF loop      Energy           Fermi           Energy gain       Timer   <-- SCF
                               energy          per atom          (sec)   <-- SCF
------------------------------------------------------------------------ <-- SCF
Initial  -6.48030261E+004  0.00000000E+000                       450.95  <-- SCF
      1  -6.45478045E+004  3.73511457E+000  -3.92648628E+000     905.90  <-- SCF
      2  -6.45481166E+004  3.72938092E+000   4.80256869E-003    1220.51  <-- SCF
      3  -6.46180189E+004  3.90242727E+000   1.07541962E+000    1563.28  <-- SCF
      4  -6.46303711E+004  3.96800022E+000   1.90034294E-001    2057.15  <-- SCF
      5  -6.46369554E+004  4.13590918E+000   1.01296870E-001    2426.12  <-- SCF
      6  -6.46257447E+004  4.37522483E+000  -1.72472162E-001    2781.42  <-- SCF
      7  -6.46244355E+004  4.41783147E+000  -2.01417916E-002    3148.19  <-- SCF
      8  -6.46245247E+004  4.44935347E+000   1.37158499E-003    3519.03  <-- SCF
      9  -6.46253198E+004  4.46772952E+000   1.22331360E-002    3895.69  <-- SCF
     10  -6.46257443E+004  4.78795304E+000   6.53090059E-003    4271.62  <-- SCF
     11  -6.46257539E+004  4.78188262E+000   1.46522204E-004    4634.53  <-- SCF
     12  -6.46257584E+004  4.77989348E+000   6.93780642E-005    4991.28  <-- SCF
     13  -6.46257602E+004  4.77690310E+000   2.74994462E-005    5356.21  <-- SCF
     14  -6.46257605E+004  4.77571357E+000   5.47490670E-006    5723.40  <-- SCF
     15  -6.46257607E+004  4.77526563E+000   2.64694340E-006    6076.98  <-- SCF
     16  -6.46257607E+004  4.77486740E+000   7.67832909E-007    6413.21  <-- SCF
     17  -6.46257607E+004  4.77460346E+000   2.66235664E-007    6741.48  <-- SCF
     18  -6.46257608E+004  4.77456657E+000   8.55744165E-008    7015.41  <-- SCF
     19  -6.46257608E+004  4.77457621E+000   4.38257933E-008    7284.18  <-- SCF
     20  -6.46257608E+004  4.77459857E+000   1.05071182E-008    7538.64  <-- SCF
     21  -6.46257608E+004  4.77460593E+000   1.02935187E-009    7786.36  <-- SCF
     22  -6.46257608E+004  4.77461033E+000   3.42863458E-010    8033.39  <-- SCF
------------------------------------------------------------------------ <-- SCF
 
Integrated Spin Density     =   -0.862696E-04 hbar/2
Integrated |Spin Density|   =    0.261890E-03 hbar/2
 
Final energy, E             =  -64625.63923915     eV
Final free energy (E-TS)    =  -64625.76075493     eV
(energies not corrected for finite basis set)
 
NB est. 0K energy (E-0.5TS)      =  -64625.69999704     eV
 

 ************************** Forces **************************
 *                                                          *
 *               Cartesian components (eV/A)                *
 * -------------------------------------------------------- *
 *                         x            y            z      *
 *                                                          *
 * P               1     -0.03775      0.03774      0.00349 *
 * P               2     -0.06234     -0.05814     -0.05543 *
 * P               3     -0.03795      0.00430      0.03317 *
 * P               4     -0.03113     -0.03293     -0.03167 *
 * P               5      0.05799     -0.05798      0.05995 *
 * P               6     -0.00094      0.00158      0.00238 *
 * P               7      0.00069     -0.03013     -0.00812 *
 * P               8     -0.00542      0.00510      0.00371 *
 * P               9      0.00075     -0.01011     -0.02805 *
 * P              10     -0.00116      0.00083      0.00229 *
 * P              11      0.05814      0.06234     -0.05543 *
 * P              12     -0.00511      0.00511      0.00617 *
 * P              13     -0.00181      0.00080      0.00175 *
 * P              14      0.04296     -0.01072     -0.00776 *
 * P              15     -0.00157      0.00095      0.00238 *
 * P              16      0.06303     -0.06304     -0.06298 *
 * P              17      0.01012     -0.00075     -0.02805 *
 * P              18     -0.00430      0.03795      0.03317 *
 * P              19      0.01001     -0.03010      0.00119 *
 * P              20     -0.04326      0.04325      0.04488 *
 * P              21     -0.00080      0.00181      0.00175 *
 * P              22      0.03013     -0.00069     -0.00812 *
 * P              23     -0.00476      0.03365      0.00061 *
 * P              24      0.03287     -0.03288      0.03310 *
 * P              25     -0.00494      0.00494      0.03600 *
 * P              26      0.03010     -0.01001      0.00119 *
 * P              27     -0.00082      0.00117      0.00229 *
 * P              28      0.03292      0.03113     -0.03167 *
 * P              29      0.01033     -0.01032     -0.04427 *
 * P              30     -0.03365      0.00477      0.00061 *
 * P              31      0.01072     -0.04295     -0.00776 *
 * P              32     -0.00511      0.00541      0.00371 *
 * In              1     -0.04045      0.00919      0.00885 *
 * In              2     -0.00917      0.00917      0.04009 *
 * In              3     -0.02607      0.02607      0.02573 *
 * In              4     -0.00918      0.04044      0.00885 *
 * In              5      0.02462     -0.00671     -0.00660 *
 * In              6      0.00401     -0.00401     -0.05808 *
 * In              7     -0.01898      0.01898     -0.04861 *
 * In              8      0.00671     -0.02461     -0.00660 *
 * In              9      0.02462     -0.00626     -0.00708 *
 * In             10      0.00671     -0.00623     -0.02491 *
 * In             11     -0.01899     -0.04821      0.01860 *
 * In             12      0.00402     -0.05773     -0.00439 *
 * In             13      0.00719      0.01988      0.01944 *
 * In             14     -0.00805     -0.00762      0.00788 *
 * In             15      0.00207      0.00206      0.00169 *
 * In             16     -0.00804      0.00833     -0.00806 *
 * In             17      0.05774     -0.00402     -0.00439 *
 * In             18      0.00623     -0.00672     -0.02491 *
 * In             19      0.04820      0.01900      0.01860 *
 * In             20      0.00627     -0.02461     -0.00709 *
 * In             21     -0.00834      0.00803     -0.00805 *
 * In             22      0.00762      0.00804      0.00788 *
 * In             23     -0.00207     -0.00208      0.00169 *
 * In             24     -0.01987     -0.00718      0.01944 *
 * In             25     -0.00834     -0.00762      0.00769 *
 * In             26     -0.01985      0.01986     -0.00760 *
 * In             27     -0.00206      0.00205     -0.00254 *
 * In             28      0.00763      0.00833      0.00769 *
 * In             29     -0.01884     -0.02411     -0.02443 *
 * In             30      0.02410     -0.02410      0.01849 *
 * In             31     -0.01730      0.01729      0.01691 *
 * In             32      0.02411      0.01884     -0.02443 *
 * In             33     -0.13420      0.13420      0.13379 *
 *                                                          *
 ************************************************************

 Pseudo atomic calculation performed for P 3s2 3p3

 Converged in 23 iterations to a total energy of -208.0292 eV

 Pseudo atomic calculation performed for In 4d10 5s2 5p1

 Converged in 42 iterations to a total energy of -1747.4501 eV
Charge spilling parameter for spin component 1 = 0.26%
Charge spilling parameter for spin component 2 = 0.26%

                   Orbital Populations                  
  ---------------------------------------------------------------
     Ion    Atom   Orbital              Up        Down      Spin
  ---------------------------------------------------------------
      P     1      S                    0.878     0.878    -0.000
      P     1      Px                   0.649     0.649    -0.000
      P     1      Py                   0.649     0.649    -0.000
      P     1      Pz                   0.639     0.639    -0.000
      P     2      S                    0.881     0.881     0.000
      P     2      Px                   0.632     0.632     0.000
      P     2      Py                   0.652     0.652    -0.000
      P     2      Pz                   0.652     0.652    -0.000
      P     3      S                    0.878     0.878    -0.000
      P     3      Px                   0.649     0.649    -0.000
      P     3      Py                   0.639     0.639    -0.000
      P     3      Pz                   0.649     0.649    -0.000
      P     4      S                    0.868     0.868     0.000
      P     4      Px                   0.656     0.656    -0.000
      P     4      Py                   0.656     0.656    -0.000
      P     4      Pz                   0.656     0.656    -0.000
      P     5      S                    0.881     0.881     0.000
      P     5      Px                   0.652     0.652     0.000
      P     5      Py                   0.652     0.652    -0.000
      P     5      Pz                   0.632     0.632     0.000
      P     6      S                    0.868     0.868    -0.000
      P     6      Px                   0.653     0.653     0.000
      P     6      Py                   0.658     0.658    -0.000
      P     6      Pz                   0.657     0.657     0.000
      P     7      S                    0.868     0.868    -0.000
      P     7      Px                   0.657     0.657    -0.000
      P     7      Py                   0.655     0.655    -0.000
      P     7      Pz                   0.655     0.655     0.000
      P     8      S                    0.869     0.869     0.000
      P     8      Px                   0.655     0.655    -0.000
      P     8      Py                   0.655     0.655    -0.000
      P     8      Pz                   0.655     0.655    -0.000
      P     9      S                    0.868     0.868     0.000
      P     9      Px                   0.657     0.657    -0.000
      P     9      Py                   0.655     0.655     0.000
      P     9      Pz                   0.655     0.655    -0.000
      P    10      S                    0.868     0.868    -0.000
      P    10      Px                   0.653     0.653     0.000
      P    10      Py                   0.657     0.657     0.000
      P    10      Pz                   0.658     0.658    -0.000
      P    11      S                    0.881     0.881    -0.000
      P    11      Px                   0.652     0.652    -0.000
      P    11      Py                   0.632     0.632     0.000
      P    11      Pz                   0.652     0.652    -0.000
      P    12      S                    0.869     0.869     0.000
      P    12      Px                   0.655     0.655    -0.000
      P    12      Py                   0.655     0.655    -0.000
      P    12      Pz                   0.655     0.655    -0.000
      P    13      S                    0.868     0.868    -0.000
      P    13      Px                   0.658     0.658    -0.000
      P    13      Py                   0.657     0.657     0.000
      P    13      Pz                   0.653     0.653    -0.000
      P    14      S                    0.866     0.866    -0.000
      P    14      Px                   0.654     0.654     0.000
      P    14      Py                   0.658     0.658    -0.000
      P    14      Pz                   0.658     0.658    -0.000
      P    15      S                    0.868     0.868    -0.000
      P    15      Px                   0.658     0.658    -0.000
      P    15      Py                   0.653     0.653     0.000
      P    15      Pz                   0.657     0.657    -0.000
      P    16      S                    0.868     0.868    -0.000
      P    16      Px                   0.656     0.656    -0.000
      P    16      Py                   0.656     0.656     0.000
      P    16      Pz                   0.657     0.657     0.000
      P    17      S                    0.868     0.868     0.000
      P    17      Px                   0.655     0.655    -0.000
      P    17      Py                   0.657     0.657    -0.000
      P    17      Pz                   0.655     0.655     0.000
      P    18      S                    0.878     0.878    -0.000
      P    18      Px                   0.639     0.639     0.000
      P    18      Py                   0.649     0.649    -0.000
      P    18      Pz                   0.649     0.649    -0.000
      P    19      S                    0.868     0.868     0.000
      P    19      Px                   0.655     0.655     0.000
      P    19      Py                   0.655     0.655    -0.000
      P    19      Pz                   0.657     0.657    -0.000
      P    20      S                    0.869     0.868     0.000
      P    20      Px                   0.656     0.656    -0.000
      P    20      Py                   0.656     0.656    -0.000
      P    20      Pz                   0.656     0.656    -0.000
      P    21      S                    0.868     0.868     0.000
      P    21      Px                   0.657     0.657     0.000
      P    21      Py                   0.658     0.658    -0.000
      P    21      Pz                   0.653     0.653     0.000
      P    22      S                    0.868     0.868     0.000
      P    22      Px                   0.655     0.655    -0.000
      P    22      Py                   0.657     0.657    -0.000
      P    22      Pz                   0.655     0.655     0.000
      P    23      S                    0.867     0.867    -0.000
      P    23      Px                   0.658     0.658    -0.000
      P    23      Py                   0.654     0.654    -0.000
      P    23      Pz                   0.658     0.658    -0.000
      P    24      S                    0.868     0.868    -0.000
      P    24      Px                   0.656     0.656    -0.000
      P    24      Py                   0.656     0.656    -0.000
      P    24      Pz                   0.656     0.656    -0.000
      P    25      S                    0.867     0.867    -0.000
      P    25      Px                   0.658     0.658     0.000
      P    25      Py                   0.658     0.658    -0.000
      P    25      Pz                   0.654     0.654     0.000
      P    26      S                    0.868     0.868    -0.000
      P    26      Px                   0.655     0.655    -0.000
      P    26      Py                   0.655     0.655    -0.000
      P    26      Pz                   0.657     0.657    -0.000
      P    27      S                    0.868     0.868    -0.000
      P    27      Px                   0.657     0.657     0.000
      P    27      Py                   0.653     0.653     0.000
      P    27      Pz                   0.658     0.658    -0.000
      P    28      S                    0.868     0.868     0.000
      P    28      Px                   0.656     0.656    -0.000
      P    28      Py                   0.656     0.656     0.000
      P    28      Pz                   0.656     0.656    -0.000
      P    29      S                    0.866     0.866    -0.000
      P    29      Px                   0.658     0.658    -0.000
      P    29      Py                   0.658     0.658    -0.000
      P    29      Pz                   0.654     0.654     0.000
      P    30      S                    0.867     0.867    -0.000
      P    30      Px                   0.654     0.654     0.000
      P    30      Py                   0.658     0.658    -0.000
      P    30      Pz                   0.658     0.658    -0.000
      P    31      S                    0.866     0.866    -0.000
      P    31      Px                   0.658     0.658    -0.000
      P    31      Py                   0.654     0.654    -0.000
      P    31      Pz                   0.658     0.658    -0.000
      P    32      S                    0.869     0.869     0.000
      P    32      Px                   0.655     0.655    -0.000
      P    32      Py                   0.655     0.655    -0.000
      P    32      Pz                   0.655     0.655    -0.000
     In     1      Dzz                  1.000     1.000     0.000
     In     1      Dzy                  0.998     0.998     0.000
     In     1      Dzx                  0.998     0.998    -0.000
     In     1      Dxx-yy               1.000     1.000     0.000
     In     1      Dxy                  0.998     0.998    -0.000
     In     1      S                    0.699     0.699     0.000
     In     1      Px                   0.236     0.236    -0.000
     In     1      Py                   0.242     0.242    -0.000
     In     1      Pz                   0.242     0.242    -0.000
     In     1      S                   -0.220    -0.220    -0.000
     In     2      Dzz                  1.000     1.000    -0.000
     In     2      Dzy                  0.998     0.998    -0.000
     In     2      Dzx                  0.998     0.998    -0.000
     In     2      Dxx-yy               1.000     1.000     0.000
     In     2      Dxy                  0.998     0.998    -0.000
     In     2      S                    0.699     0.699     0.000
     In     2      Px                   0.242     0.242    -0.000
     In     2      Py                   0.242     0.242    -0.000
     In     2      Pz                   0.236     0.236    -0.000
     In     2      S                   -0.220    -0.220    -0.000
     In     3      Dzz                  1.000     1.000    -0.000
     In     3      Dzy                  0.998     0.998    -0.000
     In     3      Dzx                  0.998     0.998    -0.000
     In     3      Dxx-yy               1.000     1.000    -0.000
     In     3      Dxy                  0.998     0.998    -0.000
     In     3      S                    0.692     0.692     0.000
     In     3      Px                   0.247     0.247     0.000
     In     3      Py                   0.247     0.247    -0.000
     In     3      Pz                   0.247     0.247    -0.000
     In     3      S                   -0.233    -0.233     0.000
     In     4      Dzz                  1.000     1.000     0.000
     In     4      Dzy                  0.998     0.998    -0.000
     In     4      Dzx                  0.998     0.998     0.000
     In     4      Dxx-yy               1.000     1.000     0.000
     In     4      Dxy                  0.998     0.998    -0.000
     In     4      S                    0.699     0.699     0.000
     In     4      Px                   0.242     0.242    -0.000
     In     4      Py                   0.236     0.236    -0.000
     In     4      Pz                   0.242     0.242    -0.000
     In     4      S                   -0.220    -0.220    -0.000
     In     5      Dzz                  1.000     1.000     0.000
     In     5      Dzy                  0.999     0.999    -0.000
     In     5      Dzx                  0.998     0.998     0.000
     In     5      Dxx-yy               1.000     1.000     0.000
     In     5      Dxy                  0.998     0.998    -0.000
     In     5      S                    0.714     0.714     0.000
     In     5      Px                   0.245     0.245     0.000
     In     5      Py                   0.242     0.242    -0.000
     In     5      Pz                   0.238     0.238    -0.000
     In     5      S                   -0.263    -0.263     0.000
     In     6      Dzz                  1.000     1.000     0.000
     In     6      Dzy                  0.998     0.998     0.000
     In     6      Dzx                  0.998     0.998     0.000
     In     6      Dxx-yy               1.000     1.000    -0.000
     In     6      Dxy                  0.998     0.998     0.000
     In     6      S                    0.716     0.716     0.000
     In     6      Px                   0.243     0.243     0.000
     In     6      Py                   0.243     0.243     0.000
     In     6      Pz                   0.238     0.238     0.000
     In     6      S                   -0.267    -0.267    -0.000
     In     7      Dzz                  1.000     1.000     0.000
     In     7      Dzy                  0.998     0.998     0.000
     In     7      Dzx                  0.998     0.998    -0.000
     In     7      Dxx-yy               1.000     1.000    -0.000
     In     7      Dxy                  0.998     0.998    -0.000
     In     7      S                    0.717     0.717    -0.000
     In     7      Px                   0.243     0.243    -0.000
     In     7      Py                   0.243     0.243    -0.000
     In     7      Pz                   0.238     0.238    -0.000
     In     7      S                   -0.269    -0.269     0.000
     In     8      Dzz                  1.000     1.000     0.000
     In     8      Dzy                  0.998     0.998    -0.000
     In     8      Dzx                  0.999     0.999    -0.000
     In     8      Dxx-yy               1.000     1.000     0.000
     In     8      Dxy                  0.998     0.998    -0.000
     In     8      S                    0.714     0.714    -0.000
     In     8      Px                   0.242     0.242    -0.000
     In     8      Py                   0.245     0.245    -0.000
     In     8      Pz                   0.238     0.238    -0.000
     In     8      S                   -0.263    -0.263     0.000
     In     9      Dzz                  1.000     1.000     0.000
     In     9      Dzy                  0.999     0.999    -0.000
     In     9      Dzx                  0.998     0.998    -0.000
     In     9      Dxx-yy               1.000     1.000    -0.000
     In     9      Dxy                  0.998     0.998    -0.000
     In     9      S                    0.714     0.714     0.000
     In     9      Px                   0.245     0.245     0.000
     In     9      Py                   0.238     0.238    -0.000
     In     9      Pz                   0.242     0.242    -0.000
     In     9      S                   -0.263    -0.263     0.000
     In    10      Dzz                  1.000     1.000     0.000
     In    10      Dzy                  0.998     0.998    -0.000
     In    10      Dzx                  0.998     0.998    -0.000
     In    10      Dxx-yy               1.000     1.000     0.000
     In    10      Dxy                  0.999     0.999    -0.000
     In    10      S                    0.714     0.714     0.000
     In    10      Px                   0.242     0.242     0.000
     In    10      Py                   0.238     0.238    -0.000
     In    10      Pz                   0.245     0.245     0.000
     In    10      S                   -0.263    -0.263     0.000
     In    11      Dzz                  1.000     1.000    -0.000
     In    11      Dzy                  0.998     0.998    -0.000
     In    11      Dzx                  0.998     0.998    -0.000
     In    11      Dxx-yy               1.000     1.000     0.000
     In    11      Dxy                  0.998     0.998    -0.000
     In    11      S                    0.717     0.717    -0.000
     In    11      Px                   0.243     0.243    -0.000
     In    11      Py                   0.238     0.238     0.000
     In    11      Pz                   0.243     0.243    -0.000
     In    11      S                   -0.269    -0.269     0.000
     In    12      Dzz                  1.000     1.000     0.000
     In    12      Dzy                  0.998     0.998    -0.000
     In    12      Dzx                  0.998     0.998     0.000
     In    12      Dxx-yy               1.000     1.000    -0.000
     In    12      Dxy                  0.998     0.998     0.000
     In    12      S                    0.716     0.716    -0.000
     In    12      Px                   0.243     0.243     0.000
     In    12      Py                   0.238     0.238     0.000
     In    12      Pz                   0.243     0.243     0.000
     In    12      S                   -0.267    -0.267    -0.000
     In    13      Dzz                  1.000     1.000     0.000
     In    13      Dzy                  0.998     0.998    -0.000
     In    13      Dzx                  0.998     0.998    -0.000
     In    13      Dxx-yy               1.000     1.000     0.000
     In    13      Dxy                  0.998     0.998    -0.000
     In    13      S                    0.715     0.715    -0.000
     In    13      Px                   0.244     0.244    -0.000
     In    13      Py                   0.241     0.241    -0.000
     In    13      Pz                   0.241     0.241    -0.000
     In    13      S                   -0.264    -0.264    -0.000
     In    14      Dzz                  1.000     1.000    -0.000
     In    14      Dzy                  0.998     0.998     0.000
     In    14      Dzx                  0.998     0.998     0.000
     In    14      Dxx-yy               1.000     1.000     0.000
     In    14      Dxy                  0.998     0.998     0.000
     In    14      S                    0.716     0.716     0.000
     In    14      Px                   0.247     0.247     0.000
     In    14      Py                   0.240     0.240    -0.000
     In    14      Pz                   0.239     0.239    -0.000
     In    14      S                   -0.262    -0.262    -0.000
     In    15      Dzz                  1.000     1.000    -0.000
     In    15      Dzy                  0.998     0.998     0.000
     In    15      Dzx                  0.998     0.998    -0.000
     In    15      Dxx-yy               1.000     1.000     0.000
     In    15      Dxy                  0.998     0.998    -0.000
     In    15      S                    0.715     0.715     0.000
     In    15      Px                   0.245     0.245    -0.000
     In    15      Py                   0.240     0.240     0.000
     In    15      Pz                   0.240     0.240    -0.000
     In    15      S                   -0.266    -0.266     0.000
     In    16      Dzz                  1.000     1.000     0.000
     In    16      Dzy                  0.998     0.998     0.000
     In    16      Dzx                  0.998     0.998    -0.000
     In    16      Dxx-yy               1.000     1.000    -0.000
     In    16      Dxy                  0.998     0.998     0.000
     In    16      S                    0.716     0.716    -0.000
     In    16      Px                   0.247     0.247    -0.000
     In    16      Py                   0.239     0.239    -0.000
     In    16      Pz                   0.240     0.240    -0.000
     In    16      S                   -0.262    -0.262     0.000
     In    17      Dzz                  1.000     1.000     0.000
     In    17      Dzy                  0.998     0.998     0.000
     In    17      Dzx                  0.998     0.998     0.000
     In    17      Dxx-yy               1.000     1.000    -0.000
     In    17      Dxy                  0.998     0.998     0.000
     In    17      S                    0.716     0.716     0.000
     In    17      Px                   0.238     0.238     0.000
     In    17      Py                   0.243     0.243     0.000
     In    17      Pz                   0.243     0.243     0.000
     In    17      S                   -0.267    -0.267    -0.000
     In    18      Dzz                  1.000     1.000     0.000
     In    18      Dzy                  0.998     0.998     0.000
     In    18      Dzx                  0.998     0.998    -0.000
     In    18      Dxx-yy               1.000     1.000     0.000
     In    18      Dxy                  0.999     0.999    -0.000
     In    18      S                    0.714     0.714     0.000
     In    18      Px                   0.238     0.238    -0.000
     In    18      Py                   0.242     0.242     0.000
     In    18      Pz                   0.245     0.245     0.000
     In    18      S                   -0.263    -0.263     0.000
     In    19      Dzz                  1.000     1.000     0.000
     In    19      Dzy                  0.998     0.998    -0.000
     In    19      Dzx                  0.998     0.998    -0.000
     In    19      Dxx-yy               1.000     1.000     0.000
     In    19      Dxy                  0.998     0.998    -0.000
     In    19      S                    0.717     0.717    -0.000
     In    19      Px                   0.238     0.238     0.000
     In    19      Py                   0.243     0.243    -0.000
     In    19      Pz                   0.243     0.243    -0.000
     In    19      S                   -0.269    -0.269     0.000
     In    20      Dzz                  1.000     1.000     0.000
     In    20      Dzy                  0.998     0.998    -0.000
     In    20      Dzx                  0.999     0.999    -0.000
     In    20      Dxx-yy               1.000     1.000     0.000
     In    20      Dxy                  0.998     0.998    -0.000
     In    20      S                    0.714     0.714     0.000
     In    20      Px                   0.238     0.238    -0.000
     In    20      Py                   0.245     0.245     0.000
     In    20      Pz                   0.242     0.242    -0.000
     In    20      S                   -0.263    -0.263     0.000
     In    21      Dzz                  1.000     1.000     0.000
     In    21      Dzy                  0.998     0.998    -0.000
     In    21      Dzx                  0.998     0.998     0.000
     In    21      Dxx-yy               1.000     1.000     0.000
     In    21      Dxy                  0.998     0.998    -0.000
     In    21      S                    0.716     0.716    -0.000
     In    21      Px                   0.239     0.239    -0.000
     In    21      Py                   0.247     0.247    -0.000
     In    21      Pz                   0.240     0.240    -0.000
     In    21      S                   -0.262    -0.262    -0.000
     In    22      Dzz                  1.000     1.000    -0.000
     In    22      Dzy                  0.998     0.998    -0.000
     In    22      Dzx                  0.998     0.998    -0.000
     In    22      Dxx-yy               1.000     1.000     0.000
     In    22      Dxy                  0.998     0.998    -0.000
     In    22      S                    0.716     0.716     0.000
     In    22      Px                   0.240     0.240     0.000
     In    22      Py                   0.247     0.247    -0.000
     In    22      Pz                   0.239     0.239    -0.000
     In    22      S                   -0.262    -0.262    -0.000
     In    23      Dzz                  1.000     1.000    -0.000
     In    23      Dzy                  0.998     0.998    -0.000
     In    23      Dzx                  0.998     0.998    -0.000
     In    23      Dxx-yy               1.000     1.000     0.000
     In    23      Dxy                  0.998     0.998     0.000
     In    23      S                    0.715     0.715     0.000
     In    23      Px                   0.240     0.240     0.000
     In    23      Py                   0.245     0.245    -0.000
     In    23      Pz                   0.240     0.240    -0.000
     In    23      S                   -0.266    -0.266     0.000
     In    24      Dzz                  1.000     1.000     0.000
     In    24      Dzy                  0.998     0.998    -0.000
     In    24      Dzx                  0.998     0.998     0.000
     In    24      Dxx-yy               1.000     1.000     0.000
     In    24      Dxy                  0.998     0.998    -0.000
     In    24      S                    0.715     0.715    -0.000
     In    24      Px                   0.241     0.241    -0.000
     In    24      Py                   0.244     0.244    -0.000
     In    24      Pz                   0.241     0.241    -0.000
     In    24      S                   -0.264    -0.264    -0.000
     In    25      Dzz                  0.999     0.999     0.000
     In    25      Dzy                  0.998     0.998    -0.000
     In    25      Dzx                  0.998     0.998     0.000
     In    25      Dxx-yy               1.000     1.000    -0.000
     In    25      Dxy                  0.998     0.998     0.000
     In    25      S                    0.716     0.716    -0.000
     In    25      Px                   0.239     0.239     0.000
     In    25      Py                   0.240     0.240    -0.000
     In    25      Pz                   0.247     0.247     0.000
     In    25      S                   -0.262    -0.262    -0.000
     In    26      Dzz                  1.000     1.000     0.000
     In    26      Dzy                  0.998     0.998    -0.000
     In    26      Dzx                  0.998     0.998    -0.000
     In    26      Dxx-yy               1.000     1.000     0.000
     In    26      Dxy                  0.998     0.998     0.000
     In    26      S                    0.715     0.715     0.000
     In    26      Px                   0.241     0.241    -0.000
     In    26      Py                   0.241     0.241    -0.000
     In    26      Pz                   0.244     0.244    -0.000
     In    26      S                   -0.264    -0.264    -0.000
     In    27      Dzz                  1.000     1.000     0.000
     In    27      Dzy                  0.998     0.998    -0.000
     In    27      Dzx                  0.998     0.998    -0.000
     In    27      Dxx-yy               1.000     1.000    -0.000
     In    27      Dxy                  0.998     0.998     0.000
     In    27      S                    0.715     0.715     0.000
     In    27      Px                   0.240     0.240     0.000
     In    27      Py                   0.240     0.240    -0.000
     In    27      Pz                   0.245     0.245    -0.000
     In    27      S                   -0.265    -0.266     0.000
     In    28      Dzz                  0.999     0.999     0.000
     In    28      Dzy                  0.998     0.998     0.000
     In    28      Dzx                  0.998     0.998    -0.000
     In    28      Dxx-yy               1.000     1.000    -0.000
     In    28      Dxy                  0.998     0.998     0.000
     In    28      S                    0.716     0.716    -0.000
     In    28      Px                   0.240     0.240    -0.000
     In    28      Py                   0.239     0.239    -0.000
     In    28      Pz                   0.247     0.247    -0.000
     In    28      S                   -0.262    -0.262    -0.000
     In    29      Dzz                  1.000     1.000     0.000
     In    29      Dzy                  0.998     0.998    -0.000
     In    29      Dzx                  0.998     0.998     0.000
     In    29      Dxx-yy               1.000     1.000    -0.000
     In    29      Dxy                  0.998     0.998     0.000
     In    29      S                    0.714     0.714    -0.000
     In    29      Px                   0.242     0.242     0.000
     In    29      Py                   0.241     0.241    -0.000
     In    29      Pz                   0.241     0.241    -0.000
     In    29      S                   -0.264    -0.264     0.000
     In    30      Dzz                  1.000     1.000     0.000
     In    30      Dzy                  0.998     0.998     0.000
     In    30      Dzx                  0.998     0.998     0.000
     In    30      Dxx-yy               1.000     1.000     0.000
     In    30      Dxy                  0.998     0.998     0.000
     In    30      S                    0.714     0.714     0.000
     In    30      Px                   0.241     0.241    -0.000
     In    30      Py                   0.241     0.241    -0.000
     In    30      Pz                   0.242     0.242    -0.000
     In    30      S                   -0.264    -0.264     0.000
     In    31      Dzz                  1.000     1.000    -0.000
     In    31      Dzy                  0.998     0.998     0.000
     In    31      Dzx                  0.998     0.998     0.000
     In    31      Dxx-yy               1.000     1.000     0.000
     In    31      Dxy                  0.998     0.998     0.000
     In    31      S                    0.714     0.714     0.000
     In    31      Px                   0.241     0.241    -0.000
     In    31      Py                   0.241     0.241    -0.000
     In    31      Pz                   0.241     0.241    -0.000
     In    31      S                   -0.265    -0.265     0.000
     In    32      Dzz                  1.000     1.000     0.000
     In    32      Dzy                  0.998     0.998     0.000
     In    32      Dzx                  0.998     0.998     0.000
     In    32      Dxx-yy               1.000     1.000     0.000
     In    32      Dxy                  0.998     0.998    -0.000
     In    32      S                    0.714     0.714    -0.000
     In    32      Px                   0.241     0.241    -0.000
     In    32      Py                   0.242     0.242     0.000
     In    32      Pz                   0.241     0.241    -0.000
     In    32      S                   -0.264    -0.264     0.000
     In    33      Dzz                  0.999     0.999     0.000
     In    33      Dzy                  0.998     0.998     0.000
     In    33      Dzx                  0.998     0.998     0.000
     In    33      Dxx-yy               0.999     0.999     0.000
     In    33      Dxy                  0.998     0.998     0.000
     In    33      S                    0.750     0.750     0.000
     In    33      Px                   0.199     0.199    -0.000
     In    33      Py                   0.199     0.199    -0.000
     In    33      Pz                   0.199     0.199    -0.000
     In    33      S                   -0.003    -0.003     0.000
  ---------------------------------------------------------------
                           Total:     294.500   294.500     0.000
  ---------------------------------------------------------------

     Atomic Populations (Mulliken)
     -----------------------------
Species          Ion Spin      s       p       d       f      Total   Charge(e)   Spin(hbar/2)
==============================================================================================
  P               1   up:     0.878   1.937   0.000   0.000   2.815    -0.630       -0.000
                  1   dn:     0.878   1.937   0.000   0.000   2.815
  P               2   up:     0.881   1.936   0.000   0.000   2.818    -0.635        0.000
                  2   dn:     0.881   1.936   0.000   0.000   2.818
  P               3   up:     0.878   1.937   0.000   0.000   2.815    -0.630       -0.000
                  3   dn:     0.878   1.937   0.000   0.000   2.815
  P               4   up:     0.868   1.968   0.000   0.000   2.836    -0.672       -0.000
                  4   dn:     0.868   1.968   0.000   0.000   2.836
  P               5   up:     0.881   1.936   0.000   0.000   2.818    -0.635        0.000
                  5   dn:     0.881   1.936   0.000   0.000   2.817
  P               6   up:     0.868   1.968   0.000   0.000   2.836    -0.672       -0.000
                  6   dn:     0.868   1.968   0.000   0.000   2.836
  P               7   up:     0.868   1.967   0.000   0.000   2.835    -0.671       -0.000
                  7   dn:     0.868   1.967   0.000   0.000   2.835
  P               8   up:     0.869   1.965   0.000   0.000   2.834    -0.668       -0.000
                  8   dn:     0.869   1.965   0.000   0.000   2.834
  P               9   up:     0.868   1.967   0.000   0.000   2.835    -0.671       -0.000
                  9   dn:     0.868   1.967   0.000   0.000   2.835
  P              10   up:     0.868   1.968   0.000   0.000   2.836    -0.672       -0.000
                 10   dn:     0.868   1.968   0.000   0.000   2.836
  P              11   up:     0.881   1.936   0.000   0.000   2.818    -0.635        0.000
                 11   dn:     0.881   1.936   0.000   0.000   2.818
  P              12   up:     0.869   1.965   0.000   0.000   2.834    -0.668       -0.000
                 12   dn:     0.869   1.965   0.000   0.000   2.834
  P              13   up:     0.868   1.968   0.000   0.000   2.836    -0.672       -0.000
                 13   dn:     0.868   1.968   0.000   0.000   2.836
  P              14   up:     0.866   1.971   0.000   0.000   2.837    -0.674       -0.000
                 14   dn:     0.866   1.971   0.000   0.000   2.837
  P              15   up:     0.868   1.968   0.000   0.000   2.836    -0.672       -0.000
                 15   dn:     0.868   1.968   0.000   0.000   2.836
  P              16   up:     0.868   1.970   0.000   0.000   2.837    -0.675       -0.000
                 16   dn:     0.868   1.970   0.000   0.000   2.837
  P              17   up:     0.868   1.967   0.000   0.000   2.835    -0.671        0.000
                 17   dn:     0.868   1.967   0.000   0.000   2.835
  P              18   up:     0.878   1.937   0.000   0.000   2.815    -0.630       -0.000
                 18   dn:     0.878   1.937   0.000   0.000   2.815
  P              19   up:     0.868   1.967   0.000   0.000   2.835    -0.671       -0.000
                 19   dn:     0.868   1.967   0.000   0.000   2.835
  P              20   up:     0.869   1.967   0.000   0.000   2.836    -0.672       -0.000
                 20   dn:     0.868   1.967   0.000   0.000   2.836
  P              21   up:     0.868   1.968   0.000   0.000   2.836    -0.672       -0.000
                 21   dn:     0.868   1.968   0.000   0.000   2.836
  P              22   up:     0.868   1.967   0.000   0.000   2.835    -0.671       -0.000
                 22   dn:     0.868   1.967   0.000   0.000   2.835
  P              23   up:     0.867   1.970   0.000   0.000   2.837    -0.675       -0.000
                 23   dn:     0.867   1.971   0.000   0.000   2.837
  P              24   up:     0.868   1.968   0.000   0.000   2.836    -0.672       -0.000
                 24   dn:     0.868   1.968   0.000   0.000   2.836
  P              25   up:     0.867   1.970   0.000   0.000   2.837    -0.674       -0.000
                 25   dn:     0.867   1.970   0.000   0.000   2.837
  P              26   up:     0.868   1.967   0.000   0.000   2.835    -0.671       -0.000
                 26   dn:     0.868   1.967   0.000   0.000   2.835
  P              27   up:     0.868   1.968   0.000   0.000   2.836    -0.672       -0.000
                 27   dn:     0.868   1.968   0.000   0.000   2.836
  P              28   up:     0.868   1.968   0.000   0.000   2.836    -0.672        0.000
                 28   dn:     0.868   1.968   0.000   0.000   2.836
  P              29   up:     0.866   1.971   0.000   0.000   2.837    -0.674       -0.000
                 29   dn:     0.866   1.971   0.000   0.000   2.837
  P              30   up:     0.867   1.971   0.000   0.000   2.837    -0.675       -0.000
                 30   dn:     0.867   1.971   0.000   0.000   2.837
  P              31   up:     0.866   1.971   0.000   0.000   2.837    -0.674       -0.000
                 31   dn:     0.866   1.971   0.000   0.000   2.837
  P              32   up:     0.869   1.965   0.000   0.000   2.834    -0.668       -0.000
                 32   dn:     0.869   1.965   0.000   0.000   2.834
  In              1   up:     0.479   0.721   4.994   0.000   6.194     0.612       -0.000
                  1   dn:     0.479   0.721   4.994   0.000   6.194
  In              2   up:     0.479   0.721   4.994   0.000   6.194     0.612        0.000
                  2   dn:     0.479   0.721   4.994   0.000   6.194
  In              3   up:     0.459   0.742   4.995   0.000   6.196     0.609        0.000
                  3   dn:     0.459   0.742   4.995   0.000   6.196
  In              4   up:     0.479   0.721   4.994   0.000   6.194     0.612       -0.000
                  4   dn:     0.479   0.721   4.994   0.000   6.194
  In              5   up:     0.451   0.725   4.994   0.000   6.170     0.660        0.000
                  5   dn:     0.451   0.725   4.994   0.000   6.170
  In              6   up:     0.449   0.725   4.994   0.000   6.168     0.664        0.000
                  6   dn:     0.449   0.725   4.994   0.000   6.168
  In              7   up:     0.448   0.725   4.994   0.000   6.168     0.664        0.000
                  7   dn:     0.448   0.725   4.994   0.000   6.168
  In              8   up:     0.451   0.725   4.994   0.000   6.170     0.660        0.000
                  8   dn:     0.451   0.725   4.994   0.000   6.170
  In              9   up:     0.451   0.725   4.994   0.000   6.170     0.660        0.000
                  9   dn:     0.451   0.725   4.994   0.000   6.170
  In             10   up:     0.451   0.725   4.994   0.000   6.170     0.660        0.000
                 10   dn:     0.451   0.725   4.994   0.000   6.170
  In             11   up:     0.448   0.725   4.994   0.000   6.168     0.664       -0.000
                 11   dn:     0.448   0.725   4.994   0.000   6.168
  In             12   up:     0.449   0.725   4.994   0.000   6.168     0.664        0.000
                 12   dn:     0.449   0.725   4.994   0.000   6.168
  In             13   up:     0.450   0.725   4.994   0.000   6.170     0.660       -0.000
                 13   dn:     0.450   0.725   4.994   0.000   6.170
  In             14   up:     0.453   0.726   4.994   0.000   6.174     0.653       -0.000
                 14   dn:     0.453   0.726   4.994   0.000   6.174
  In             15   up:     0.449   0.725   4.994   0.000   6.168     0.664        0.000
                 15   dn:     0.449   0.725   4.994   0.000   6.168
  In             16   up:     0.453   0.726   4.994   0.000   6.174     0.653       -0.000
                 16   dn:     0.453   0.726   4.994   0.000   6.174
  In             17   up:     0.449   0.725   4.994   0.000   6.168     0.664        0.000
                 17   dn:     0.449   0.725   4.994   0.000   6.168
  In             18   up:     0.451   0.725   4.994   0.000   6.170     0.660        0.000
                 18   dn:     0.451   0.725   4.994   0.000   6.170
  In             19   up:     0.448   0.725   4.994   0.000   6.168     0.664        0.000
                 19   dn:     0.448   0.725   4.994   0.000   6.168
  In             20   up:     0.451   0.725   4.994   0.000   6.170     0.660        0.000
                 20   dn:     0.451   0.725   4.994   0.000   6.170
  In             21   up:     0.453   0.726   4.994   0.000   6.174     0.653       -0.000
                 21   dn:     0.453   0.726   4.994   0.000   6.174
  In             22   up:     0.453   0.726   4.994   0.000   6.174     0.653        0.000
                 22   dn:     0.453   0.726   4.994   0.000   6.174
  In             23   up:     0.449   0.725   4.994   0.000   6.168     0.664        0.000
                 23   dn:     0.449   0.725   4.994   0.000   6.168
  In             24   up:     0.450   0.725   4.994   0.000   6.170     0.660       -0.000
                 24   dn:     0.450   0.725   4.994   0.000   6.170
  In             25   up:     0.453   0.726   4.994   0.000   6.174     0.653       -0.000
                 25   dn:     0.453   0.726   4.994   0.000   6.174
  In             26   up:     0.450   0.725   4.994   0.000   6.170     0.660       -0.000
                 26   dn:     0.450   0.725   4.994   0.000   6.170
  In             27   up:     0.449   0.725   4.994   0.000   6.168     0.664        0.000
                 27   dn:     0.449   0.725   4.994   0.000   6.168
  In             28   up:     0.453   0.726   4.994   0.000   6.174     0.653       -0.000
                 28   dn:     0.453   0.726   4.994   0.000   6.174
  In             29   up:     0.450   0.724   4.994   0.000   6.168     0.664        0.000
                 29   dn:     0.450   0.724   4.994   0.000   6.168
  In             30   up:     0.450   0.724   4.994   0.000   6.168     0.664        0.000
                 30   dn:     0.450   0.724   4.994   0.000   6.168
  In             31   up:     0.449   0.722   4.995   0.000   6.165     0.669        0.000
                 31   dn:     0.449   0.722   4.995   0.000   6.165
  In             32   up:     0.450   0.724   4.994   0.000   6.168     0.664       -0.000
                 32   dn:     0.450   0.724   4.994   0.000   6.168
  In             33   up:     0.747   0.596   4.993   0.000   6.336     0.328        0.000
                 33   dn:     0.747   0.596   4.993   0.000   6.336
==============================================================================================

                 Bond                   Population        Spin       Length (A)
================================================================================
              P 32 -- In 1                   0.83         0.00          2.46428
              P 12 -- In 2                   0.83         0.00          2.46428
              P 8  -- In 4                   0.83         0.00          2.46429
              P 20 -- In 3                   0.76        -0.00          2.50977
              P 14 -- In 14                  0.66        -0.00          2.52628
              P 29 -- In 25                  0.66        -0.00          2.52628
              P 29 -- In 28                  0.66        -0.00          2.52628
              P 31 -- In 22                  0.66        -0.00          2.52628
              P 14 -- In 16                  0.66        -0.00          2.52628
              P 31 -- In 21                  0.66        -0.00          2.52628
              P 23 -- In 23                  0.67         0.00          2.53376
              P 30 -- In 15                  0.67        -0.00          2.53377
              P 25 -- In 27                  0.67         0.00          2.53377
              P 30 -- In 13                  0.66         0.00          2.53929
              P 23 -- In 24                  0.66        -0.00          2.53929
              P 25 -- In 26                  0.66        -0.00          2.53929
              P 15 -- In 15                  0.65         0.00          2.54171
              P 13 -- In 15                  0.65         0.00          2.54171
              P 21 -- In 23                  0.65         0.00          2.54171
              P 27 -- In 27                  0.65         0.00          2.54171
              P 6  -- In 23                  0.65         0.00          2.54171
              P 10 -- In 27                  0.65         0.00          2.54171
              P 21 -- In 22                  0.65        -0.00          2.54229
              P 27 -- In 28                  0.65        -0.00          2.54229
              P 13 -- In 14                  0.65        -0.00          2.54229
              P 10 -- In 25                  0.65        -0.00          2.54229
              P 15 -- In 16                  0.65        -0.00          2.54230
              P 6  -- In 21                  0.65        -0.00          2.54230
              P 20 -- In 13                  0.63         0.00          2.54267
              P 20 -- In 26                  0.63         0.00          2.54267
              P 20 -- In 24                  0.63         0.00          2.54267
              P 17 -- In 21                  0.65        -0.00          2.54277
              P 19 -- In 25                  0.65         0.00          2.54277
              P 26 -- In 28                  0.65         0.00          2.54277
              P 22 -- In 22                  0.65         0.00          2.54277
              P 9  -- In 16                  0.65         0.00          2.54277
              P 7  -- In 14                  0.65         0.00          2.54277
              P 22 -- In 24                  0.64         0.00          2.54545
              P 7  -- In 13                  0.64        -0.00          2.54545
              P 26 -- In 26                  0.64         0.00          2.54545
              P 19 -- In 26                  0.64        -0.00          2.54545
              P 9  -- In 13                  0.64        -0.00          2.54545
              P 17 -- In 24                  0.64        -0.00          2.54545
              P 12 -- In 21                  0.60         0.00          2.54622
              P 12 -- In 16                  0.60        -0.00          2.54622
              P 8  -- In 25                  0.60         0.00          2.54622
              P 8  -- In 14                  0.60         0.00          2.54622
              P 32 -- In 28                  0.60        -0.00          2.54622
              P 32 -- In 22                  0.60         0.00          2.54622
              P 2  -- In 17                  0.64         0.00          2.54718
              P 11 -- In 12                  0.64         0.00          2.54718
              P 5  -- In 6                   0.64         0.00          2.54718
              P 32 -- In 15                  0.62        -0.00          2.54743
              P 12 -- In 27                  0.62        -0.00          2.54743
              P 8  -- In 23                  0.62        -0.00          2.54743
              P 25 -- In 29                  0.65        -0.00          2.54906
              P 23 -- In 30                  0.65        -0.00          2.54906
              P 30 -- In 30                  0.65        -0.00          2.54906
              P 25 -- In 32                  0.65        -0.00          2.54906
              P 23 -- In 29                  0.65         0.00          2.54906
              P 30 -- In 32                  0.65         0.00          2.54906
              P 26 -- In 9                   0.65         0.00          2.54907
              P 22 -- In 5                   0.65        -0.00          2.54907
              P 19 -- In 20                  0.65        -0.00          2.54907
              P 17 -- In 18                  0.65        -0.00          2.54907
              P 9  -- In 10                  0.65         0.00          2.54907
              P 7  -- In 8                   0.65         0.00          2.54907
              P 16 -- In 17                  0.65         0.00          2.54970
              P 16 -- In 6                   0.65         0.00          2.54970
              P 16 -- In 12                  0.65         0.00          2.54970
              P 4  -- In 29                  0.66        -0.00          2.55017
              P 24 -- In 30                  0.66        -0.00          2.55017
              P 28 -- In 32                  0.66        -0.00          2.55017
              P 31 -- In 31                  0.65        -0.00          2.55044
              P 14 -- In 31                  0.65        -0.00          2.55044
              P 29 -- In 31                  0.65        -0.00          2.55044
              P 5  -- In 7                   0.63        -0.00          2.55057
              P 11 -- In 11                  0.63        -0.00          2.55057
              P 2  -- In 19                  0.63        -0.00          2.55057
              P 28 -- In 11                  0.65        -0.00          2.55081
              P 24 -- In 7                   0.65        -0.00          2.55081
              P 4  -- In 19                  0.65        -0.00          2.55081
              P 10 -- In 10                  0.64        -0.00          2.55131
              P 6  -- In 8                   0.64         0.00          2.55131
              P 27 -- In 18                  0.64        -0.00          2.55131
              P 21 -- In 20                  0.64        -0.00          2.55131
              P 13 -- In 9                   0.64        -0.00          2.55131
              P 15 -- In 5                   0.64        -0.00          2.55131
              P 17 -- In 19                  0.64         0.00          2.55163
              P 9  -- In 11                  0.64        -0.00          2.55163
              P 22 -- In 7                   0.64        -0.00          2.55163
              P 7  -- In 7                   0.64         0.00          2.55163
              P 19 -- In 19                  0.64         0.00          2.55163
              P 26 -- In 11                  0.64        -0.00          2.55163
              P 29 -- In 30                  0.65         0.00          2.55214
              P 31 -- In 32                  0.65         0.00          2.55214
              P 14 -- In 29                  0.65         0.00          2.55214
              P 15 -- In 6                   0.64         0.00          2.55290
              P 6  -- In 6                   0.64        -0.00          2.55290
              P 27 -- In 17                  0.64        -0.00          2.55290
              P 10 -- In 12                  0.64         0.00          2.55290
              P 21 -- In 17                  0.64        -0.00          2.55290
              P 13 -- In 12                  0.64        -0.00          2.55290
              P 18 -- In 20                  0.65         0.00          2.55354
              P 18 -- In 18                  0.65        -0.00          2.55354
              P 3  -- In 10                  0.65        -0.00          2.55354
              P 1  -- In 8                   0.65        -0.00          2.55354
              P 1  -- In 5                   0.65        -0.00          2.55354
              P 3  -- In 9                   0.65         0.00          2.55354
              P 16 -- In 31                  0.66        -0.00          2.55712
              P 28 -- In 5                   0.64         0.00          2.55822
              P 24 -- In 9                   0.64         0.00          2.55822
              P 4  -- In 8                   0.64         0.00          2.55822
              P 4  -- In 10                  0.64         0.00          2.55822
              P 28 -- In 18                  0.64         0.00          2.55822
              P 24 -- In 20                  0.64         0.00          2.55822
              P 3  -- In 3                   0.52         0.00          2.64280
              P 1  -- In 3                   0.52         0.00          2.64280
              P 18 -- In 3                   0.52         0.00          2.64280
              P 3  -- In 4                   0.53        -0.00          2.64300
              P 1  -- In 2                   0.53         0.00          2.64300
              P 18 -- In 1                   0.53        -0.00          2.64300
              P 11 -- In 1                   0.42        -0.00          2.72041
              P 2  -- In 4                   0.42         0.00          2.72041
              P 5  -- In 1                   0.42        -0.00          2.72041
              P 11 -- In 2                   0.42        -0.00          2.72041
              P 5  -- In 4                   0.42        -0.00          2.72041
              P 2  -- In 2                   0.42        -0.00          2.72041
             In 4  -- In 33                 -0.52         0.00          2.82827
             In 2  -- In 33                 -0.52         0.00          2.82827
             In 1  -- In 33                 -0.52         0.00          2.82827
              P 2  -- In 33                  0.13        -0.00          2.85252
              P 11 -- In 33                  0.13        -0.00          2.85252
              P 5  -- In 33                  0.13        -0.00          2.85252
             In 3  -- In 33                 -0.46         0.00          2.86905
================================================================================

 Hirshfeld supercell size:           2           2           2
Standard grid dimensions: 240 240 240
Fine grid dimensions:     240 240 240


     Hirshfeld Analysis
     ------------------
Species   Ion     Hirshfeld Charge (e)  Spin (hbar/2)
===================================================
  P        1                -0.23       -0.00
  P        2                -0.23       -0.00
  P        3                -0.23       -0.00
  P        4                -0.24        0.00
  P        5                -0.23       -0.00
  P        6                -0.24        0.00
  P        7                -0.24       -0.00
  P        8                -0.23       -0.00
  P        9                -0.24       -0.00
  P       10                -0.24        0.00
  P       11                -0.23       -0.00
  P       12                -0.23       -0.00
  P       13                -0.24        0.00
  P       14                -0.24       -0.00
  P       15                -0.24        0.00
  P       16                -0.24        0.00
  P       17                -0.24       -0.00
  P       18                -0.23       -0.00
  P       19                -0.24       -0.00
  P       20                -0.23       -0.00
  P       21                -0.24        0.00
  P       22                -0.24       -0.00
  P       23                -0.24       -0.00
  P       24                -0.24        0.00
  P       25                -0.24       -0.00
  P       26                -0.24       -0.00
  P       27                -0.24        0.00
  P       28                -0.24        0.00
  P       29                -0.24       -0.00
  P       30                -0.24       -0.00
  P       31                -0.24       -0.00
  P       32                -0.23       -0.00
  In       1                 0.23       -0.00
  In       2                 0.23       -0.00
  In       3                 0.23        0.00
  In       4                 0.23       -0.00
  In       5                 0.23        0.00
  In       6                 0.23        0.00
  In       7                 0.23        0.00
  In       8                 0.23        0.00
  In       9                 0.23        0.00
  In      10                 0.23        0.00
  In      11                 0.23        0.00
  In      12                 0.23        0.00
  In      13                 0.23       -0.00
  In      14                 0.23       -0.00
  In      15                 0.23       -0.00
  In      16                 0.23       -0.00
  In      17                 0.23        0.00
  In      18                 0.23        0.00
  In      19                 0.23        0.00
  In      20                 0.23        0.00
  In      21                 0.23       -0.00
  In      22                 0.23       -0.00
  In      23                 0.23       -0.00
  In      24                 0.23       -0.00
  In      25                 0.23       -0.00
  In      26                 0.23       -0.00
  In      27                 0.23       -0.00
  In      28                 0.23       -0.00
  In      29                 0.24       -0.00
  In      30                 0.24       -0.00
  In      31                 0.24       -0.00
  In      32                 0.24       -0.00
  In      33                 0.09       -0.00
===================================================

 
 A BibTeX formatted list of references used in this run has been written to 
 In_Interstitial_Migration_Tetra_Octa_Singlepoints_1.bib
 
Initialisation time =     31.07 s
Calculation time    =   8279.31 s
Finalisation time   =    168.28 s
Total time          =   8478.66 s
Peak Memory Use     = 9669880 kB
 
Overall parallel efficiency rating: Terrible (34%)
 
Data was distributed by:-
G-vector (3-way); efficiency rating: Poor (37%)
k-point (36-way); efficiency rating: Very good (81%)
