 +-------------------------------------------------+
 |                                                 |
 |      CCC   AA    SSS  TTTTT  EEEEE  PPPP        |
 |     C     A  A  S       T    E      P   P       |
 |     C     AAAA   SS     T    EEE    PPPP        |
 |     C     A  A     S    T    E      P           |
 |      CCC  A  A  SSS     T    EEEEE  P           |
 |                                                 |
 +-------------------------------------------------+
 |                                                 |
 | Welcome to Academic Release CASTEP version 24.1 |
 | Ab Initio Total Energy Program                  |
 |                                                 |
 | Authors:                                        |
 | M. Segall, M. Probert, C. Pickard, P. Hasnip,   |
 | S. Clark, K. Refson, J. R. Yates,               |
 | A. Bartok-Partay, M. Payne                      |
 |                                                 |
 | Contributors:                                   |
 | P. Lindan, P. Haynes, J. White, V. Milman,      |
 | N. Govind, M. Gibson, P. Tulip, V. Cocula,      |
 | B. Montanari, D. Quigley, M. Glover,            |
 | L. Bernasconi, A. Perlov, M. Plummer,           |
 | E. McNellis, J. Meyer, J. Gale, D. Jochym       |
 | J. Aarons, B. Walker, R. Gillen, D. Jones       |
 | T. Green, I. J. Bush, C. J. Armstrong,          |
 | E. J. Higgins, E. L. Brown, M. S. McFly,        |
 | J. Wilkins, B-C. Shih, P. J. P. Byrne,          |
 | R. J. Maurer, J. C. Womack, J. Dziedzic,        |
 | L. LeBlanc, T. K. Stenczel, J. Kermode,         |
 | S. Sturniolo, B. Shi, B. Durham, M. Evans,      |
 | M. J. Smith, A. Tamerus, Z. Hawkhead,           |
 | V. Ravindran, T. Hollins, S. A. Joyce,          |
 | R. T. Strong, A. M. Reilly, S. J. Donaldson     |
 |                                                 |
 | Copyright (c) 2000 - 2023                       |
 |                                                 |
 |     Distributed under license from Cambridge    |
 |     Enterprise for academic use only.           |
 |                                                 |
 | Please cite                                     |
 |                                                 |
 |     "First principles methods using CASTEP"     |
 |                                                 |
 |         Zeitschrift fuer Kristallographie       |
 |           220(5-6) pp. 567-570 (2005)           |
 |                                                 |
 | S. J. Clark, M. D. Segall, C. J. Pickard,       |
 | P. J. Hasnip, M. J. Probert, K. Refson,         |
 | M. C. Payne                                     |
 |                                                 |
 |       in all publications arising from          |
 |              your use of CASTEP                 |
 |                                                 |
 +-------------------------------------------------+
 |                                                 |
 |              http://www.castep.org              |
 |                                                 |
 +-------------------------------------------------+



 Compiled for  GNU 11.2.0 on 04-04-2024 18:39:17
 from code version 6355fd106 Castep241_branch Thu Mar 7 17:56:19 2024 +0000
 Compiler: GNU Fortran 11.2.0; Optimisation: FAST
 Comms   : MPI VERSION : CRAY MPICH version 8.1.23.14 (ANL base 3.4a2)
 MATHLIBS: default (LAPACK version 3.10.1)
 FFT Lib : fftw3 version commercial-fftw-3.3.10-sse2-avx-avx2-avx2_128
 Fundamental constants values: CODATA 2018

 Run started: Tue, 29 Apr 2025 16:20:42 +0100

 Atomic calculation performed for P: 1s2 2s2 2p6 3s2 3p3

 Converged in 47 iterations to an ae energy of -9309.074 eV

   ============================================================                
   | Pseudopotential Report - Date of generation 29-04-2025   |                
   ------------------------------------------------------------                
   | Element: P Ionic charge:  5.00 Level of theory: RSCAN    |                
   | Atomic Solver: Koelling-Harmon                           |                
   |                                                          |                
   |               Reference Electronic Structure             |                
   |         Orbital         Occupation         Energy        |                
   |            3s              2.000           -0.535        |                
   |            3p              3.000           -0.209        |                
   |                                                          |                
   |                 Pseudopotential Definition               |                
   |        Beta     l      e      Rc     scheme   norm       |                
   |          1      0   -0.535   1.807     qc      0         |                
   |          2      0    0.250   1.807     qc      0         |                
   |          3      1   -0.209   1.807     qc      0         |                
   |          4      1    0.250   1.807     qc      0         |                
   |          5      2    0.000   1.807     qc      0         |                
   |          6      2    0.250   1.807     qc      0         |                
   |         loc     3    0.000   1.807     pn      0         |                
   |                                                          |                
   | Augmentation charge Rinner = 1.263                       |                
   | Partial core correction Rc = 1.263                       |                
   ------------------------------------------------------------                
   | "3|1.8|4|4|5|30:31:32"                                   |                
   ------------------------------------------------------------                
   |      Author: Chris J. Pickard, Cambridge University      |                
   ============================================================                
 Warning: otfg_output_psp cannot write out meta-GGA pseudopotentials presently.

 Atomic calculation performed for In:
 1s2 2s2 2p6 3s2 3p6 3d10 4s2 4p6 4d10 5s2 5p1

 Converged in 84 iterations to an ae energy of -160093.328 eV

   ============================================================                
   | Pseudopotential Report - Date of generation 29-04-2025   |                
   ------------------------------------------------------------                
   | Element: In Ionic charge: 13.00 Level of theory: RSCAN   |                
   | Atomic Solver: Koelling-Harmon                           |                
   |                                                          |                
   |               Reference Electronic Structure             |                
   |         Orbital         Occupation         Energy        |                
   |            4d             10.000           -0.711        |                
   |            5s              2.000           -0.313        |                
   |            5p              1.000           -0.095        |                
   |                                                          |                
   |                 Pseudopotential Definition               |                
   |        Beta     l      e      Rc     scheme   norm       |                
   |          1      0   -0.313   2.501     qc      0         |                
   |          2      0    0.250   2.501     qc      0         |                
   |          3      1   -0.095   2.501     qc      0         |                
   |          4      1    0.250   2.501     qc      0         |                
   |          5      2   -0.711   2.207     qc      0         |                
   |          6      2    0.250   2.207     qc      0         |                
   |         loc     3    0.000   2.501     pn      0         |                
   |                                                          |                
   | Augmentation charge Rinner = 1.504                       |                
   | Partial core correction Rc = 1.504                       |                
   ------------------------------------------------------------                
   | "3|2.5|2.5|1.5|7|8|9|50:51:42U2.2U2.2"                   |                
   ------------------------------------------------------------                
   |      Author: Chris J. Pickard, Cambridge University      |                
   ============================================================                
 Warning: otfg_output_psp cannot write out meta-GGA pseudopotentials presently.

 Pseudo atomic calculation performed for P 3s2 3p3

 Converged in 23 iterations to a total energy of -208.0292 eV

 Pseudo atomic calculation performed for In 4d10 5s2 5p1

 Converged in 42 iterations to a total energy of -1747.4501 eV
 Calculation parallelised over 108 processes.
 Data is distributed by G-vector(3-way) and k-point(36-way)
 Each process may use up to 16 threads.

 ************************************ Title ************************************
 

 ***************************** General Parameters ******************************
  
 output verbosity                               : normal  (1)
 write checkpoint data to                       : P_Interstitial_Migration_Dumbbell_Dumbbell+_Singlepoints_7.check
 type of calculation                            : single point energy
 stress calculation                             : off
 density difference calculation                 : off
 electron localisation func (ELF) calculation   : off
 Hirshfeld analysis                             : on
 polarisation (Berry phase) analysis            : off
 molecular orbital projected DOS                : off
 deltaSCF calculation                           : off
 unlimited duration calculation
 timing information                             : on
 memory usage estimate                          : on
 write extra output files                       : on
 write final potential to formatted file        : off
 write final density to formatted file          : off
 write BibTeX reference list                    : on
 write OTFG pseudopotential files               : on
 write electrostatic potential file             : on
 write bands file                               : on
 checkpoint writing                             : off
  
 output         length unit                     : A
 output           mass unit                     : amu
 output           time unit                     : ps
 output         charge unit                     : e
 output           spin unit                     : hbar/2
 output         energy unit                     : eV
 output          force unit                     : eV/A
 output       velocity unit                     : A/ps
 output       pressure unit                     : GPa
 output     inv_length unit                     : 1/A
 output      frequency unit                     : cm-1
 output force constant unit                     : eV/A**2
 output         volume unit                     : A**3
 output   IR intensity unit                     : (D/A)**2/amu
 output         dipole unit                     : D
 output         efield unit                     : eV/A/e
 output        entropy unit                     : J/mol/K
 output    efield chi2 unit                     : pm/V
  
 wavefunctions paging                           : none
 random number generator seed                   :  162043011
 data distribution                              : optimal for this architecture
 optimization strategy                          : balance speed and memory

 *********************** Exchange-Correlation Parameters ***********************
  
 using functional                               : RSCAN
 relativistic treatment                         : Koelling-Harmon
 DFT+D: Semi-empirical dispersion correction    : off

 ************************* Pseudopotential Parameters **************************
  
 pseudopotential representation                 : reciprocal space
 <beta|phi> representation                      : reciprocal space
 spin-orbit coupling                            : off

 **************************** Basis Set Parameters *****************************
  
 plane wave basis set cut-off                   :   900.0000   eV
 size of standard grid                          :     2.0000
 size of   fine   gmax                          :    30.7390   1/A
 finite basis set correction                    : none

 **************************** Electronic Parameters ****************************
  
 number of  electrons                           :  581.0    
 net charge of system                           :  0.000    
 net spin   of system                           :  1.000    
 number of  up  spins                           :  291.0    
 number of down spins                           :  290.0    
 treating system as spin-polarized
 number of bands                                :        349

 ********************* Electronic Minimization Parameters **********************
  
 Method: Treating system as metallic with density mixing treatment of electrons,
         and number of  SD  steps               :          1
         and number of  CG  steps               :          4
  
 total energy / atom convergence tol.           : 0.1000E-07   eV
 eigen-energy convergence tolerance             : 0.2234E-08   eV
 max force / atom convergence tol.              : ignored
 convergence tolerance window                   :          3   cycles
 max. number of SCF cycles                      :        100
 number of fixed-spin iterations                :         10
 smearing scheme                                : Gaussian
 smearing width                                 : 0.2000       eV
 Fermi energy convergence tolerance             : 0.2721E-13   eV
 periodic dipole correction                     : NONE

 ************************** Density Mixing Parameters **************************
  
 density-mixing scheme                          : Pulay
 max. length of mixing history                  :         20
 charge density mixing amplitude                : 0.5000    
   spin density mixing amplitude                :  2.000    
 cut-off energy for mixing                      :  900.0       eV

 *********************** Population Analysis Parameters ************************
  
 Population analysis with cutoff                :  3.000       A
 Population analysis output                     : summary and pdos components

 *******************************************************************************
  

                           -------------------------------
                                      Unit Cell
                           -------------------------------
        Real Lattice(A)                      Reciprocal Lattice(1/A)
    11.8016820    -0.0000080    -0.0000080        0.532397442   0.000000361   0.000000361
    -0.0000080    11.8016820    -0.0000080        0.000000361   0.532397442   0.000000361
    -0.0000080    -0.0000080    11.8016820        0.000000361   0.000000361   0.532397442

                       Lattice parameters(A)       Cell Angles
                    a =     11.801682          alpha =   90.000078
                    b =     11.801682          beta  =   90.000078
                    c =     11.801682          gamma =   90.000078

                       Current cell volume =          1643.734705       A**3
                                   density =             2.857097   AMU/A**3
                                           =             4.744322     g/cm^3

                           -------------------------------
                                     Cell Contents
                           -------------------------------
                         Total number of ions in cell =   65
                      Total number of species in cell =    2
                        Max number of any one species =   33

            xxxxxxxxxxxxxxxxxxxxxxxxxxxxxxxxxxxxxxxxxxxxxxxxxxxxxxxxxxxx
            x  Element    Atom        Fractional coordinates of atoms  x
            x            Number           u          v          w      x
            x----------------------------------------------------------x
            x  P            1         0.123687   0.123836   0.372470   x 
            x  P            2         0.437211   0.084907   0.187228   x 
            x  P            3         0.120172   0.378972   0.125477   x 
            x  P            4         0.370676   0.378969   0.375981   x 
            x  P            5         0.115184   0.128265   0.865179   x 
            x  P            6         0.373079   0.123981   0.623076   x 
            x  P            7         0.122271   0.373977   0.622073   x 
            x  P            8         0.375481   0.378973   0.870170   x 
            x  P            9         0.122204   0.625110   0.373950   x 
            x  P           10         0.373079   0.627378   0.123077   x 
            x  P           11         0.117028   0.868584   0.123082   x 
            x  P           12         0.373082   0.868573   0.379141   x 
            x  P           13         0.122496   0.624120   0.872498   x 
            x  P           14         0.373078   0.620777   0.623079   x 
            x  P           15         0.123413   0.874026   0.624126   x 
            x  P           16         0.373077   0.868582   0.867021   x 
            x  P           17         0.630968   0.128260   0.380966   x 
            x  P           18         0.873080   0.123981   0.123076   x 
            x  P           19         0.625982   0.378967   0.120677   x 
            x  P           20         0.874083   0.373974   0.373883   x 
            x  P           21         0.622465   0.123835   0.873691   x 
            x  P           22         0.873074   0.119359   0.623077   x 
            x  P           23         0.623885   0.373976   0.624080   x 
            x  P           24         0.872073   0.373977   0.872270   x 
            x  P           25         0.623660   0.624116   0.373660   x 
            x  P           26         0.873076   0.620780   0.123078   x 
            x  P           27         0.629132   0.868582   0.123077   x 
            x  P           28         0.872029   0.874026   0.372741   x 
            x  P           29         0.623953   0.625112   0.872203   x 
            x  P           30         0.873079   0.623830   0.623077   x 
            x  P           31         0.622744   0.874026   0.622031   x 
            x  P           32         0.874130   0.874029   0.873417   x 
            x  P           33         0.308912   0.084910   0.058915   x 
            x  In           1        -0.000401   0.001162  -0.003302   x 
            x  In           2         0.240539  -0.013976   0.255635   x 
            x  In           3        -0.002369   0.248346   0.248056   x 
            x  In           4         0.234809   0.266113  -0.015196   x 
            x  In           5        -0.000789  -0.002784   0.496943   x 
            x  In           6         0.246697   0.001160   0.749589   x 
            x  In           7        -0.007776   0.250060   0.742223   x 
            x  In           8         0.248098   0.248347   0.498527   x 
            x  In           9        -0.003051   0.499737  -0.003705   x 
            x  In          10         0.248391   0.503460   0.247764   x 
            x  In          11        -0.006174   0.745970   0.248785   x 
            x  In          12         0.246942   0.750495  -0.003059   x 
            x  In          13        -0.001530   0.499457   0.497684   x 
            x  In          14         0.246294   0.499737   0.746952   x 
            x  In          15        -0.002363   0.749409   0.747638   x 
            x  In          16         0.247367   0.745965   0.502334   x 
            x  In          17         0.505615  -0.013969  -0.009462   x 
            x  In          18         0.746566   0.001158   0.249457   x 
            x  In          19         0.511341   0.266103   0.261342   x 
            x  In          20         0.748528   0.248346  -0.001903   x 
            x  In          21         0.499461   0.001158   0.496566   x 
            x  In          22         0.746943  -0.002784   0.749218   x 
            x  In          23         0.498059   0.248346   0.747628   x 
            x  In          24         0.753926   0.250056   0.503924   x 
            x  In          25         0.497768   0.503461  -0.001610   x 
            x  In          26         0.749204   0.499734   0.249860   x 
            x  In          27         0.499218   0.750490   0.249216   x 
            x  In          28         0.752331   0.745972  -0.002631   x 
            x  In          29         0.499859   0.499734   0.499204   x 
            x  In          30         0.747685   0.499458   0.748468   x 
            x  In          31         0.498786   0.745970   0.743826   x 
            x  In          32         0.748519   0.749407   0.498518   x 
            xxxxxxxxxxxxxxxxxxxxxxxxxxxxxxxxxxxxxxxxxxxxxxxxxxxxxxxxxxxx


                         No user defined ionic velocities

                           -------------------------------
                                   Details of Species
                           -------------------------------

                               Mass of species in AMU
                                    P   30.9737600
                                    In  114.8180000

                          Electric Quadrupole Moment (Barn)
                                    P    1.0000000 No Isotope Defined
                                    In    0.7700000 Isotope115

                          Files used for pseudopotentials:
                                    P 3|1.8|4|4|5|30:31:32
                                    In 3|2.5|2.5|1.5|7|8|9|50:51:42U2.2U2.2

                           -------------------------------
                              k-Points For BZ Sampling
                           -------------------------------
                       MP grid size for SCF calculation is  4  4  4
                            with an offset of   0.125  0.125  0.125
                       Number of kpoints used =            36

                           -------------------------------
                               Symmetry and Constraints
                           -------------------------------

                      Maximum deviation from symmetry =  0.00000         ANG

                      Number of symmetry operations   =           1
                      Number of ionic constraints     =           3
                      Point group of crystal =     1: C1, 1, 1
                      Space group of crystal =    35: Cmm2, C 2 -2

             Set iprint > 1 for details on symmetry rotations/translations

                         Centre of mass is constrained
             Set iprint > 1 for details of linear ionic constraints

                         Number of cell constraints= 0
                         Cell constraints are:  1 2 3 4 5 6

                         External pressure/stress (GPa)
                          0.00000   0.00000   0.00000
                                    0.00000   0.00000
                                              0.00000
 
+---------------- MEMORY AND SCRATCH DISK ESTIMATES PER PROCESS --------------+
|                                                     Memory          Disk    |
| Baseline code, static data and system overhead      368.0 MB         0.0 MB |
| BLAS internal memory storage                          0.0 MB         0.0 MB |
| Model and support data                             4327.0 MB         0.0 MB |
| Electronic energy minimisation requirements        1337.1 MB         0.0 MB |
| Force calculation requirements                      127.4 MB         0.0 MB |
|                                               ----------------------------- |
| Approx. total storage required per process         6032.2 MB         0.0 MB |
|                                                                             |
| Requirements will fluctuate during execution and may exceed these estimates |
+-----------------------------------------------------------------------------+
Calculating approximate eigenstates for fixed initial Hamiltonian
Cut-off for approx. calculation is   89.988 eV
Improving approx. states at cut-off of  450.000 eV
Resetting cut-off to  900.000 eV
Calculating total energy with cut-off of  900.000 eV.
------------------------------------------------------------------------ <-- SCF
SCF loop      Energy           Fermi           Energy gain       Timer   <-- SCF
                               energy          per atom          (sec)   <-- SCF
------------------------------------------------------------------------ <-- SCF
Initial  -6.32549167E+004  0.00000000E+000                       441.13  <-- SCF
      1  -6.30179744E+004  2.90816127E+000  -3.64526614E+000     900.00  <-- SCF
      2  -6.30182556E+004  2.90767550E+000   4.32624669E-003    1220.33  <-- SCF
      3  -6.30841752E+004  3.18966523E+000   1.01414734E+000    1573.71  <-- SCF
      4  -6.30957888E+004  3.27348020E+000   1.78670561E-001    2074.38  <-- SCF
      5  -6.31016263E+004  3.44319913E+000   8.98090407E-002    2436.66  <-- SCF
      6  -6.30902988E+004  3.62975194E+000  -1.74269695E-001    2793.58  <-- SCF
      7  -6.30889636E+004  3.67731315E+000  -2.05420840E-002    3135.01  <-- SCF
      8  -6.30891191E+004  3.71703890E+000   2.39251032E-003    3504.55  <-- SCF
      9  -6.30899421E+004  3.74216181E+000   1.26623065E-002    3873.62  <-- SCF
     10  -6.30902137E+004  3.71891081E+000   4.17718196E-003    4234.64  <-- SCF
     11  -6.30902195E+004  3.71202426E+000   9.02935800E-005    4616.23  <-- SCF
     12  -6.30902219E+004  3.70594504E+000   3.69759224E-005    4976.13  <-- SCF
     13  -6.30902230E+004  3.70544075E+000   1.66570766E-005    5342.28  <-- SCF
     14  -6.30902233E+004  3.70448266E+000   3.82183461E-006    5697.02  <-- SCF
     15  -6.30902233E+004  3.70375803E+000   9.66401300E-007    6056.08  <-- SCF
     16  -6.30902233E+004  3.70368403E+000   2.71102193E-007    6370.24  <-- SCF
     17  -6.30902233E+004  3.70353384E+000   7.83390648E-008    6655.10  <-- SCF
     18  -6.30902233E+004  3.70358008E+000   2.55616987E-008    6906.58  <-- SCF
     19  -6.30902233E+004  3.70362076E+000   8.69970810E-009    7157.86  <-- SCF
     20  -6.30902234E+004  3.70362262E+000   2.62278171E-009    7405.99  <-- SCF
     21  -6.30902234E+004  3.70362561E+000   7.15044501E-010    7655.13  <-- SCF
------------------------------------------------------------------------ <-- SCF
 
Integrated Spin Density     =    0.992900     hbar/2
Integrated |Spin Density|   =     1.21830     hbar/2
 
Final energy, E             =  -63090.21886650     eV
Final free energy (E-TS)    =  -63090.22335007     eV
(energies not corrected for finite basis set)
 
NB est. 0K energy (E-0.5TS)      =  -63090.22110828     eV
 

 ************************** Forces **************************
 *                                                          *
 *               Cartesian components (eV/A)                *
 * -------------------------------------------------------- *
 *                         x            y            z      *
 *                                                          *
 * P               1      0.00385      0.03297     -0.00880 *
 * P               2     -0.02978      0.00407     -0.02987 *
 * P               3      0.01699      0.00389     -0.01878 *
 * P               4      0.02469      0.00398     -0.00719 *
 * P               5      0.01644     -0.01387      0.01645 *
 * P               6     -0.00294     -0.02929     -0.00289 *
 * P               7     -0.01963     -0.01934     -0.01289 *
 * P               8     -0.01878      0.00389      0.01701 *
 * P               9     -0.00242      0.01276     -0.00117 *
 * P              10     -0.00347      0.00513     -0.00346 *
 * P              11     -0.01046      0.01843      0.00729 *
 * P              12     -0.01410      0.01965      0.01469 *
 * P              13     -0.01367      0.01677     -0.01367 *
 * P              14     -0.00431      0.02623     -0.00445 *
 * P              15      0.01338     -0.00113     -0.01847 *
 * P              16      0.00730      0.01843     -0.01044 *
 * P              17     -0.02451     -0.01297     -0.02453 *
 * P              18     -0.00291     -0.02929     -0.00292 *
 * P              19     -0.00721      0.00398      0.02468 *
 * P              20      0.00914     -0.01819      0.01488 *
 * P              21     -0.00877      0.03298      0.00386 *
 * P              22     -0.00385      0.04653     -0.00389 *
 * P              23      0.01488     -0.01820      0.00915 *
 * P              24     -0.01289     -0.01933     -0.01962 *
 * P              25      0.00852      0.01739      0.00851 *
 * P              26     -0.00445      0.02621     -0.00430 *
 * P              27      0.01474      0.01968     -0.01404 *
 * P              28      0.01495     -0.00196     -0.01929 *
 * P              29     -0.00117      0.01276     -0.00240 *
 * P              30     -0.00298     -0.00832     -0.00297 *
 * P              31     -0.01930     -0.00197      0.01493 *
 * P              32     -0.01848     -0.00116      0.01338 *
 * P              33      0.03150      0.00326      0.03145 *
 * In              1     -0.01696      0.00617      0.02266 *
 * In              2      0.00249     -0.06280      0.00087 *
 * In              3      0.00563      0.04359     -0.04963 *
 * In              4      0.00016      0.02596      0.00013 *
 * In              5     -0.03963     -0.02433      0.04274 *
 * In              6      0.02270      0.00620     -0.01681 *
 * In              7      0.02476     -0.00392      0.02477 *
 * In              8      0.05260      0.04361     -0.00265 *
 * In              9     -0.00875     -0.01143      0.05530 *
 * In             10     -0.02866     -0.01588      0.03161 *
 * In             11      0.01555     -0.01994     -0.01702 *
 * In             12      0.02297     -0.04948      0.02297 *
 * In             13      0.00362      0.02470     -0.00057 *
 * In             14      0.05532     -0.01144     -0.00876 *
 * In             15     -0.00903     -0.00793     -0.00901 *
 * In             16      0.02029     -0.01990     -0.01222 *
 * In             17      0.00107     -0.06284      0.00240 *
 * In             18      0.01976      0.00616     -0.01963 *
 * In             19      0.00309      0.02595      0.00312 *
 * In             20     -0.00270      0.04359      0.05260 *
 * In             21     -0.01963      0.00613      0.01981 *
 * In             22      0.04275     -0.02431     -0.03964 *
 * In             23     -0.04967      0.04357      0.00568 *
 * In             24     -0.02159     -0.00391     -0.02157 *
 * In             25      0.03158     -0.01590     -0.02866 *
 * In             26      0.01180     -0.01154     -0.05218 *
 * In             27     -0.01996     -0.04936     -0.01992 *
 * In             28     -0.01220     -0.01992      0.02025 *
 * In             29     -0.05218     -0.01153      0.01180 *
 * In             30     -0.00057      0.02470      0.00365 *
 * In             31     -0.01704     -0.01998      0.01553 *
 * In             32      0.01214     -0.00794      0.01213 *
 *                                                          *
 ************************************************************

 Pseudo atomic calculation performed for P 3s2 3p3

 Converged in 23 iterations to a total energy of -208.0292 eV

 Pseudo atomic calculation performed for In 4d10 5s2 5p1

 Converged in 42 iterations to a total energy of -1747.4501 eV
Charge spilling parameter for spin component 1 = 0.18%
Charge spilling parameter for spin component 2 = 0.18%

                   Orbital Populations                  
  ---------------------------------------------------------------
     Ion    Atom   Orbital              Up        Down      Spin
  ---------------------------------------------------------------
      P     1      S                    0.868     0.868    -0.000
      P     1      Px                   0.658     0.658    -0.001
      P     1      Py                   0.653     0.654    -0.001
      P     1      Pz                   0.658     0.658    -0.001
      P     2      S                    0.898     0.889     0.009
      P     2      Px                   0.658     0.463     0.196
      P     2      Py                   0.717     0.708     0.009
      P     2      Pz                   0.658     0.463     0.196
      P     3      S                    0.868     0.866     0.002
      P     3      Px                   0.661     0.659     0.002
      P     3      Py                   0.663     0.659     0.005
      P     3      Pz                   0.651     0.648     0.002
      P     4      S                    0.868     0.866     0.002
      P     4      Px                   0.651     0.648     0.002
      P     4      Py                   0.663     0.659     0.005
      P     4      Pz                   0.661     0.659     0.002
      P     5      S                    0.866     0.866    -0.000
      P     5      Px                   0.659     0.658     0.001
      P     5      Py                   0.647     0.648    -0.000
      P     5      Pz                   0.659     0.658     0.001
      P     6      S                    0.867     0.867    -0.000
      P     6      Px                   0.657     0.657    -0.000
      P     6      Py                   0.659     0.659    -0.000
      P     6      Pz                   0.655     0.655    -0.000
      P     7      S                    0.867     0.867     0.000
      P     7      Px                   0.656     0.656     0.000
      P     7      Py                   0.657     0.657     0.000
      P     7      Pz                   0.658     0.658     0.000
      P     8      S                    0.868     0.866     0.002
      P     8      Px                   0.651     0.648     0.002
      P     8      Py                   0.663     0.659     0.005
      P     8      Pz                   0.661     0.659     0.002
      P     9      S                    0.866     0.866    -0.000
      P     9      Px                   0.656     0.656     0.000
      P     9      Py                   0.659     0.659    -0.000
      P     9      Pz                   0.656     0.656     0.000
      P    10      S                    0.867     0.867    -0.000
      P    10      Px                   0.657     0.657    -0.000
      P    10      Py                   0.657     0.657    -0.000
      P    10      Pz                   0.657     0.657    -0.000
      P    11      S                    0.873     0.867     0.005
      P    11      Px                   0.654     0.646     0.008
      P    11      Py                   0.660     0.644     0.016
      P    11      Pz                   0.651     0.645     0.006
      P    12      S                    0.873     0.867     0.005
      P    12      Px                   0.651     0.645     0.006
      P    12      Py                   0.660     0.644     0.016
      P    12      Pz                   0.654     0.646     0.008
      P    13      S                    0.867     0.867    -0.000
      P    13      Px                   0.657     0.657    -0.000
      P    13      Py                   0.655     0.656    -0.000
      P    13      Pz                   0.657     0.657    -0.000
      P    14      S                    0.864     0.864     0.001
      P    14      Px                   0.654     0.653     0.001
      P    14      Py                   0.662     0.659     0.003
      P    14      Pz                   0.663     0.660     0.003
      P    15      S                    0.867     0.867    -0.000
      P    15      Px                   0.658     0.658    -0.000
      P    15      Py                   0.656     0.656    -0.000
      P    15      Pz                   0.656     0.656    -0.000
      P    16      S                    0.873     0.867     0.005
      P    16      Px                   0.651     0.645     0.006
      P    16      Py                   0.660     0.644     0.016
      P    16      Pz                   0.654     0.646     0.008
      P    17      S                    0.866     0.866    -0.000
      P    17      Px                   0.659     0.658     0.001
      P    17      Py                   0.647     0.648    -0.000
      P    17      Pz                   0.659     0.658     0.001
      P    18      S                    0.867     0.867    -0.000
      P    18      Px                   0.655     0.655    -0.000
      P    18      Py                   0.659     0.659    -0.000
      P    18      Pz                   0.657     0.657    -0.000
      P    19      S                    0.868     0.866     0.002
      P    19      Px                   0.661     0.659     0.002
      P    19      Py                   0.663     0.659     0.005
      P    19      Pz                   0.651     0.648     0.002
      P    20      S                    0.867     0.867     0.000
      P    20      Px                   0.658     0.658     0.000
      P    20      Py                   0.657     0.657     0.000
      P    20      Pz                   0.656     0.656     0.000
      P    21      S                    0.868     0.868    -0.000
      P    21      Px                   0.658     0.658    -0.001
      P    21      Py                   0.653     0.654    -0.001
      P    21      Pz                   0.658     0.658    -0.001
      P    22      S                    0.864     0.864    -0.000
      P    22      Px                   0.661     0.662    -0.001
      P    22      Py                   0.653     0.653    -0.001
      P    22      Pz                   0.661     0.662    -0.001
      P    23      S                    0.867     0.867     0.000
      P    23      Px                   0.656     0.656     0.000
      P    23      Py                   0.657     0.657     0.000
      P    23      Pz                   0.658     0.658     0.000
      P    24      S                    0.867     0.867     0.000
      P    24      Px                   0.658     0.658     0.000
      P    24      Py                   0.657     0.657     0.000
      P    24      Pz                   0.656     0.656     0.000
      P    25      S                    0.867     0.867    -0.000
      P    25      Px                   0.657     0.657    -0.000
      P    25      Py                   0.656     0.656    -0.000
      P    25      Pz                   0.657     0.657    -0.000
      P    26      S                    0.864     0.864     0.001
      P    26      Px                   0.663     0.660     0.003
      P    26      Py                   0.662     0.659     0.003
      P    26      Pz                   0.654     0.653     0.001
      P    27      S                    0.873     0.867     0.005
      P    27      Px                   0.655     0.646     0.008
      P    27      Py                   0.660     0.644     0.016
      P    27      Pz                   0.651     0.645     0.006
      P    28      S                    0.867     0.867    -0.000
      P    28      Px                   0.656     0.656    -0.000
      P    28      Py                   0.656     0.656    -0.000
      P    28      Pz                   0.658     0.658    -0.000
      P    29      S                    0.866     0.866    -0.000
      P    29      Px                   0.656     0.656     0.000
      P    29      Py                   0.659     0.659    -0.000
      P    29      Pz                   0.656     0.656     0.000
      P    30      S                    0.867     0.867    -0.000
      P    30      Px                   0.657     0.657    -0.000
      P    30      Py                   0.657     0.657    -0.000
      P    30      Pz                   0.657     0.657    -0.000
      P    31      S                    0.867     0.867    -0.000
      P    31      Px                   0.658     0.658    -0.000
      P    31      Py                   0.656     0.656    -0.000
      P    31      Pz                   0.656     0.656    -0.000
      P    32      S                    0.867     0.867    -0.000
      P    32      Px                   0.656     0.656    -0.000
      P    32      Py                   0.656     0.656    -0.000
      P    32      Pz                   0.658     0.658    -0.000
      P    33      S                    0.898     0.889     0.009
      P    33      Px                   0.659     0.462     0.196
      P    33      Py                   0.717     0.708     0.009
      P    33      Pz                   0.659     0.462     0.196
     In     1      Dzz                  1.000     1.000     0.000
     In     1      Dzy                  0.998     0.998     0.000
     In     1      Dzx                  0.999     0.999     0.000
     In     1      Dxx-yy               1.000     1.000     0.000
     In     1      Dxy                  0.999     0.999     0.000
     In     1      S                    0.705     0.705    -0.001
     In     1      Px                   0.232     0.233    -0.000
     In     1      Py                   0.240     0.241    -0.001
     In     1      Pz                   0.241     0.240     0.001
     In     1      S                   -0.255    -0.255     0.001
     In     2      Dzz                  0.999     0.999     0.000
     In     2      Dzy                  0.999     0.998     0.001
     In     2      Dzx                  0.999     0.999     0.000
     In     2      Dxx-yy               1.000     0.999     0.000
     In     2      Dxy                  0.999     0.998     0.001
     In     2      S                    0.688     0.701    -0.013
     In     2      Px                   0.233     0.238    -0.005
     In     2      Py                   0.233     0.240    -0.007
     In     2      Pz                   0.233     0.238    -0.005
     In     2      S                   -0.267    -0.262    -0.004
     In     3      Dzz                  1.000     1.000     0.000
     In     3      Dzy                  0.998     0.998     0.000
     In     3      Dzx                  0.999     0.999    -0.000
     In     3      Dxx-yy               1.000     1.000     0.000
     In     3      Dxy                  0.998     0.998    -0.000
     In     3      S                    0.712     0.712    -0.000
     In     3      Px                   0.239     0.239     0.000
     In     3      Py                   0.240     0.240    -0.000
     In     3      Pz                   0.240     0.239     0.000
     In     3      S                   -0.267    -0.270     0.003
     In     4      Dzz                  0.999     0.999     0.000
     In     4      Dzy                  0.998     0.998     0.000
     In     4      Dzx                  0.998     0.998     0.000
     In     4      Dxx-yy               0.999     0.999     0.000
     In     4      Dxy                  0.998     0.998     0.000
     In     4      S                    0.712     0.721    -0.009
     In     4      Px                   0.246     0.246    -0.000
     In     4      Py                   0.245     0.252    -0.007
     In     4      Pz                   0.246     0.246    -0.000
     In     4      S                   -0.265    -0.267     0.001
     In     5      Dzz                  1.000     1.000     0.000
     In     5      Dzy                  0.998     0.998    -0.000
     In     5      Dzx                  0.998     0.998    -0.000
     In     5      Dxx-yy               1.000     1.000     0.000
     In     5      Dxy                  0.998     0.998    -0.000
     In     5      S                    0.707     0.707     0.001
     In     5      Px                   0.241     0.240     0.000
     In     5      Py                   0.240     0.240    -0.001
     In     5      Pz                   0.241     0.240     0.000
     In     5      S                   -0.266    -0.267     0.001
     In     6      Dzz                  1.000     1.000     0.000
     In     6      Dzy                  0.999     0.999     0.000
     In     6      Dzx                  0.999     0.999     0.000
     In     6      Dxx-yy               1.000     1.000     0.000
     In     6      Dxy                  0.998     0.998     0.000
     In     6      S                    0.705     0.705    -0.001
     In     6      Px                   0.241     0.240     0.001
     In     6      Py                   0.240     0.241    -0.001
     In     6      Pz                   0.232     0.233    -0.000
     In     6      S                   -0.255    -0.255     0.001
     In     7      Dzz                  0.999     0.999     0.000
     In     7      Dzy                  0.998     0.998    -0.000
     In     7      Dzx                  0.998     0.998    -0.000
     In     7      Dxx-yy               1.000     1.000    -0.000
     In     7      Dxy                  0.998     0.998     0.000
     In     7      S                    0.710     0.710    -0.001
     In     7      Px                   0.241     0.241    -0.000
     In     7      Py                   0.250     0.251    -0.001
     In     7      Pz                   0.241     0.241    -0.000
     In     7      S                   -0.266    -0.266     0.000
     In     8      Dzz                  1.000     1.000     0.000
     In     8      Dzy                  0.998     0.998    -0.000
     In     8      Dzx                  0.999     0.999    -0.000
     In     8      Dxx-yy               1.000     1.000     0.000
     In     8      Dxy                  0.998     0.998     0.000
     In     8      S                    0.712     0.712    -0.000
     In     8      Px                   0.240     0.239     0.000
     In     8      Py                   0.240     0.240    -0.000
     In     8      Pz                   0.239     0.239     0.000
     In     8      S                   -0.267    -0.270     0.003
     In     9      Dzz                  1.000     1.000     0.000
     In     9      Dzy                  0.998     0.998    -0.000
     In     9      Dzx                  0.998     0.998     0.000
     In     9      Dxx-yy               1.000     1.000     0.000
     In     9      Dxy                  0.998     0.998     0.000
     In     9      S                    0.708     0.707     0.001
     In     9      Px                   0.240     0.239     0.000
     In     9      Py                   0.238     0.239    -0.000
     In     9      Pz                   0.247     0.245     0.002
     In     9      S                   -0.265    -0.265    -0.001
     In    10      Dzz                  1.000     1.000     0.000
     In    10      Dzy                  0.998     0.998    -0.000
     In    10      Dzx                  0.998     0.998    -0.000
     In    10      Dxx-yy               1.000     1.000     0.000
     In    10      Dxy                  0.998     0.998    -0.000
     In    10      S                    0.712     0.713    -0.000
     In    10      Px                   0.241     0.240     0.001
     In    10      Py                   0.239     0.239    -0.000
     In    10      Pz                   0.241     0.240     0.001
     In    10      S                   -0.270    -0.270     0.000
     In    11      Dzz                  1.000     1.000     0.000
     In    11      Dzy                  0.998     0.998    -0.000
     In    11      Dzx                  0.998     0.998     0.000
     In    11      Dxx-yy               1.000     1.000     0.000
     In    11      Dxy                  0.998     0.998    -0.000
     In    11      S                    0.716     0.715     0.001
     In    11      Px                   0.242     0.241     0.001
     In    11      Py                   0.241     0.241    -0.000
     In    11      Pz                   0.251     0.247     0.004
     In    11      S                   -0.268    -0.269     0.001
     In    12      Dzz                  1.000     1.000     0.000
     In    12      Dzy                  0.999     0.999     0.000
     In    12      Dzx                  0.998     0.998    -0.000
     In    12      Dxx-yy               1.000     1.000     0.000
     In    12      Dxy                  0.999     0.999     0.000
     In    12      S                    0.705     0.706    -0.001
     In    12      Px                   0.243     0.241     0.002
     In    12      Py                   0.233     0.233    -0.001
     In    12      Pz                   0.243     0.241     0.002
     In    12      S                   -0.253    -0.258     0.004
     In    13      Dzz                  1.000     1.000    -0.000
     In    13      Dzy                  0.998     0.998     0.000
     In    13      Dzx                  0.998     0.998    -0.000
     In    13      Dxx-yy               1.000     1.000     0.000
     In    13      Dxy                  0.998     0.998    -0.000
     In    13      S                    0.707     0.707     0.000
     In    13      Px                   0.242     0.242     0.000
     In    13      Py                   0.241     0.241    -0.000
     In    13      Pz                   0.242     0.242     0.000
     In    13      S                   -0.265    -0.266     0.001
     In    14      Dzz                  1.000     1.000     0.000
     In    14      Dzy                  0.998     0.998    -0.000
     In    14      Dzx                  0.998     0.998     0.000
     In    14      Dxx-yy               1.000     1.000     0.000
     In    14      Dxy                  0.998     0.998    -0.000
     In    14      S                    0.708     0.707     0.001
     In    14      Px                   0.247     0.245     0.002
     In    14      Py                   0.238     0.239    -0.000
     In    14      Pz                   0.240     0.239     0.000
     In    14      S                   -0.265    -0.265    -0.001
     In    15      Dzz                  1.000     1.000     0.000
     In    15      Dzy                  0.998     0.998    -0.000
     In    15      Dzx                  0.998     0.998     0.000
     In    15      Dxx-yy               1.000     1.000     0.000
     In    15      Dxy                  0.998     0.998    -0.000
     In    15      S                    0.706     0.706    -0.000
     In    15      Px                   0.241     0.241    -0.000
     In    15      Py                   0.242     0.242     0.000
     In    15      Pz                   0.241     0.241    -0.000
     In    15      S                   -0.265    -0.265     0.000
     In    16      Dzz                  1.000     1.000     0.000
     In    16      Dzy                  0.998     0.998    -0.000
     In    16      Dzx                  0.998     0.998     0.000
     In    16      Dxx-yy               1.000     1.000     0.000
     In    16      Dxy                  0.998     0.998    -0.000
     In    16      S                    0.716     0.715     0.001
     In    16      Px                   0.251     0.247     0.004
     In    16      Py                   0.241     0.241    -0.000
     In    16      Pz                   0.242     0.240     0.001
     In    16      S                   -0.268    -0.269     0.001
     In    17      Dzz                  0.999     0.999     0.000
     In    17      Dzy                  0.999     0.998     0.001
     In    17      Dzx                  0.999     0.999     0.000
     In    17      Dxx-yy               1.000     0.999     0.000
     In    17      Dxy                  0.999     0.998     0.001
     In    17      S                    0.688     0.701    -0.013
     In    17      Px                   0.233     0.238    -0.005
     In    17      Py                   0.233     0.240    -0.007
     In    17      Pz                   0.233     0.238    -0.005
     In    17      S                   -0.267    -0.262    -0.004
     In    18      Dzz                  1.000     1.000     0.000
     In    18      Dzy                  0.998     0.998     0.000
     In    18      Dzx                  0.999     0.999     0.000
     In    18      Dxx-yy               1.000     1.000     0.000
     In    18      Dxy                  0.999     0.999     0.000
     In    18      S                    0.705     0.705    -0.001
     In    18      Px                   0.232     0.233    -0.000
     In    18      Py                   0.240     0.241    -0.001
     In    18      Pz                   0.241     0.240     0.001
     In    18      S                   -0.255    -0.255     0.001
     In    19      Dzz                  0.999     0.999     0.000
     In    19      Dzy                  0.998     0.998     0.000
     In    19      Dzx                  0.998     0.998     0.000
     In    19      Dxx-yy               0.999     0.999     0.000
     In    19      Dxy                  0.998     0.998     0.000
     In    19      S                    0.712     0.721    -0.009
     In    19      Px                   0.246     0.246    -0.000
     In    19      Py                   0.245     0.252    -0.007
     In    19      Pz                   0.246     0.246    -0.000
     In    19      S                   -0.265    -0.267     0.001
     In    20      Dzz                  1.000     1.000     0.000
     In    20      Dzy                  0.998     0.998     0.000
     In    20      Dzx                  0.999     0.999    -0.000
     In    20      Dxx-yy               1.000     1.000     0.000
     In    20      Dxy                  0.998     0.998    -0.000
     In    20      S                    0.712     0.712    -0.000
     In    20      Px                   0.239     0.239     0.000
     In    20      Py                   0.240     0.240    -0.000
     In    20      Pz                   0.240     0.239     0.000
     In    20      S                   -0.267    -0.270     0.003
     In    21      Dzz                  1.000     1.000     0.000
     In    21      Dzy                  0.999     0.999     0.000
     In    21      Dzx                  0.999     0.999     0.000
     In    21      Dxx-yy               1.000     1.000     0.000
     In    21      Dxy                  0.998     0.998     0.000
     In    21      S                    0.705     0.705    -0.001
     In    21      Px                   0.241     0.240     0.001
     In    21      Py                   0.240     0.241    -0.001
     In    21      Pz                   0.232     0.233    -0.000
     In    21      S                   -0.255    -0.255     0.001
     In    22      Dzz                  1.000     1.000    -0.000
     In    22      Dzy                  0.998     0.998    -0.000
     In    22      Dzx                  0.998     0.998    -0.000
     In    22      Dxx-yy               1.000     1.000     0.000
     In    22      Dxy                  0.998     0.998    -0.000
     In    22      S                    0.708     0.707     0.001
     In    22      Px                   0.241     0.240     0.000
     In    22      Py                   0.240     0.240    -0.001
     In    22      Pz                   0.241     0.240     0.000
     In    22      S                   -0.266    -0.267     0.001
     In    23      Dzz                  1.000     1.000     0.000
     In    23      Dzy                  0.998     0.998    -0.000
     In    23      Dzx                  0.999     0.999    -0.000
     In    23      Dxx-yy               1.000     1.000     0.000
     In    23      Dxy                  0.998     0.998     0.000
     In    23      S                    0.712     0.712    -0.000
     In    23      Px                   0.240     0.239     0.000
     In    23      Py                   0.240     0.240    -0.000
     In    23      Pz                   0.239     0.239     0.000
     In    23      S                   -0.267    -0.270     0.003
     In    24      Dzz                  0.999     0.999     0.000
     In    24      Dzy                  0.998     0.998    -0.000
     In    24      Dzx                  0.998     0.998    -0.000
     In    24      Dxx-yy               1.000     1.000    -0.000
     In    24      Dxy                  0.998     0.998     0.000
     In    24      S                    0.710     0.710    -0.001
     In    24      Px                   0.241     0.241    -0.000
     In    24      Py                   0.250     0.251    -0.001
     In    24      Pz                   0.241     0.241    -0.000
     In    24      S                   -0.266    -0.266     0.000
     In    25      Dzz                  1.000     1.000     0.000
     In    25      Dzy                  0.998     0.998    -0.000
     In    25      Dzx                  0.998     0.998    -0.000
     In    25      Dxx-yy               1.000     1.000     0.000
     In    25      Dxy                  0.998     0.998    -0.000
     In    25      S                    0.712     0.713    -0.000
     In    25      Px                   0.241     0.240     0.001
     In    25      Py                   0.239     0.239    -0.000
     In    25      Pz                   0.241     0.240     0.001
     In    25      S                   -0.270    -0.270     0.000
     In    26      Dzz                  1.000     1.000     0.000
     In    26      Dzy                  0.998     0.998    -0.000
     In    26      Dzx                  0.998     0.998     0.000
     In    26      Dxx-yy               1.000     1.000     0.000
     In    26      Dxy                  0.998     0.998    -0.000
     In    26      S                    0.708     0.707     0.001
     In    26      Px                   0.240     0.239     0.000
     In    26      Py                   0.238     0.239    -0.000
     In    26      Pz                   0.247     0.245     0.002
     In    26      S                   -0.265    -0.265    -0.001
     In    27      Dzz                  1.000     1.000     0.000
     In    27      Dzy                  0.999     0.999     0.000
     In    27      Dzx                  0.998     0.998    -0.000
     In    27      Dxx-yy               1.000     1.000     0.000
     In    27      Dxy                  0.999     0.999     0.000
     In    27      S                    0.705     0.706    -0.001
     In    27      Px                   0.243     0.241     0.002
     In    27      Py                   0.233     0.233    -0.001
     In    27      Pz                   0.243     0.241     0.002
     In    27      S                   -0.253    -0.258     0.004
     In    28      Dzz                  1.000     1.000     0.000
     In    28      Dzy                  0.998     0.998    -0.000
     In    28      Dzx                  0.998     0.998     0.000
     In    28      Dxx-yy               1.000     1.000     0.000
     In    28      Dxy                  0.998     0.998    -0.000
     In    28      S                    0.716     0.715     0.001
     In    28      Px                   0.242     0.241     0.001
     In    28      Py                   0.241     0.241    -0.000
     In    28      Pz                   0.251     0.247     0.004
     In    28      S                   -0.268    -0.269     0.001
     In    29      Dzz                  1.000     1.000     0.000
     In    29      Dzy                  0.998     0.998    -0.000
     In    29      Dzx                  0.998     0.998     0.000
     In    29      Dxx-yy               1.000     1.000     0.000
     In    29      Dxy                  0.998     0.998    -0.000
     In    29      S                    0.708     0.707     0.001
     In    29      Px                   0.247     0.245     0.002
     In    29      Py                   0.238     0.239    -0.000
     In    29      Pz                   0.240     0.239     0.000
     In    29      S                   -0.265    -0.265    -0.001
     In    30      Dzz                  1.000     1.000     0.000
     In    30      Dzy                  0.998     0.998     0.000
     In    30      Dzx                  0.998     0.998    -0.000
     In    30      Dxx-yy               1.000     1.000    -0.000
     In    30      Dxy                  0.998     0.998     0.000
     In    30      S                    0.707     0.707     0.000
     In    30      Px                   0.242     0.242     0.000
     In    30      Py                   0.241     0.241    -0.000
     In    30      Pz                   0.242     0.242     0.000
     In    30      S                   -0.265    -0.266     0.001
     In    31      Dzz                  1.000     1.000    -0.000
     In    31      Dzy                  0.998     0.998    -0.000
     In    31      Dzx                  0.998     0.998     0.000
     In    31      Dxx-yy               1.000     1.000     0.000
     In    31      Dxy                  0.998     0.998    -0.000
     In    31      S                    0.716     0.715     0.001
     In    31      Px                   0.251     0.247     0.004
     In    31      Py                   0.241     0.241    -0.000
     In    31      Pz                   0.242     0.240     0.001
     In    31      S                   -0.268    -0.269     0.001
     In    32      Dzz                  1.000     1.000     0.000
     In    32      Dzy                  0.998     0.998    -0.000
     In    32      Dzx                  0.998     0.998    -0.000
     In    32      Dxx-yy               1.000     1.000     0.000
     In    32      Dxy                  0.998     0.998    -0.000
     In    32      S                    0.706     0.706    -0.000
     In    32      Px                   0.241     0.241    -0.000
     In    32      Py                   0.242     0.242     0.000
     In    32      Pz                   0.241     0.241    -0.000
     In    32      S                   -0.265    -0.265     0.000
  ---------------------------------------------------------------
                           Total:     290.996   290.003     0.993
  ---------------------------------------------------------------

     Atomic Populations (Mulliken)
     -----------------------------
Species          Ion Spin      s       p       d       f      Total   Charge(e)   Spin(hbar/2)
==============================================================================================
  P               1   up:     0.868   1.968   0.000   0.000   2.836    -0.674       -0.002
                  1   dn:     0.868   1.970   0.000   0.000   2.838
  P               2   up:     0.898   2.034   0.000   0.000   2.932    -0.454        0.410
                  2   dn:     0.889   1.633   0.000   0.000   2.522
  P               3   up:     0.868   1.975   0.000   0.000   2.843    -0.675        0.011
                  3   dn:     0.866   1.966   0.000   0.000   2.832
  P               4   up:     0.868   1.975   0.000   0.000   2.843    -0.675        0.011
                  4   dn:     0.866   1.966   0.000   0.000   2.832
  P               5   up:     0.866   1.966   0.000   0.000   2.832    -0.662        0.002
                  5   dn:     0.866   1.964   0.000   0.000   2.830
  P               6   up:     0.867   1.970   0.000   0.000   2.838    -0.676       -0.000
                  6   dn:     0.867   1.971   0.000   0.000   2.838
  P               7   up:     0.867   1.971   0.000   0.000   2.838    -0.675        0.000
                  7   dn:     0.867   1.971   0.000   0.000   2.837
  P               8   up:     0.868   1.975   0.000   0.000   2.843    -0.675        0.011
                  8   dn:     0.866   1.966   0.000   0.000   2.832
  P               9   up:     0.866   1.972   0.000   0.000   2.838    -0.675        0.001
                  9   dn:     0.866   1.971   0.000   0.000   2.837
  P              10   up:     0.867   1.971   0.000   0.000   2.838    -0.677       -0.001
                 10   dn:     0.867   1.972   0.000   0.000   2.839
  P              11   up:     0.873   1.966   0.000   0.000   2.839    -0.641        0.036
                 11   dn:     0.867   1.936   0.000   0.000   2.803
  P              12   up:     0.873   1.966   0.000   0.000   2.839    -0.641        0.036
                 12   dn:     0.867   1.936   0.000   0.000   2.803
  P              13   up:     0.867   1.970   0.000   0.000   2.837    -0.674       -0.001
                 13   dn:     0.867   1.971   0.000   0.000   2.838
  P              14   up:     0.864   1.979   0.000   0.000   2.843    -0.679        0.008
                 14   dn:     0.864   1.972   0.000   0.000   2.836
  P              15   up:     0.867   1.970   0.000   0.000   2.837    -0.674       -0.000
                 15   dn:     0.867   1.970   0.000   0.000   2.837
  P              16   up:     0.873   1.966   0.000   0.000   2.839    -0.641        0.036
                 16   dn:     0.867   1.936   0.000   0.000   2.803
  P              17   up:     0.866   1.966   0.000   0.000   2.832    -0.662        0.002
                 17   dn:     0.866   1.964   0.000   0.000   2.830
  P              18   up:     0.867   1.970   0.000   0.000   2.838    -0.676       -0.000
                 18   dn:     0.867   1.971   0.000   0.000   2.838
  P              19   up:     0.868   1.975   0.000   0.000   2.843    -0.675        0.011
                 19   dn:     0.866   1.966   0.000   0.000   2.832
  P              20   up:     0.867   1.971   0.000   0.000   2.838    -0.675        0.000
                 20   dn:     0.867   1.971   0.000   0.000   2.837
  P              21   up:     0.868   1.968   0.000   0.000   2.836    -0.674       -0.002
                 21   dn:     0.868   1.970   0.000   0.000   2.838
  P              22   up:     0.864   1.975   0.000   0.000   2.839    -0.680       -0.002
                 22   dn:     0.864   1.977   0.000   0.000   2.841
  P              23   up:     0.867   1.971   0.000   0.000   2.838    -0.675        0.000
                 23   dn:     0.867   1.971   0.000   0.000   2.837
  P              24   up:     0.867   1.971   0.000   0.000   2.838    -0.675        0.000
                 24   dn:     0.867   1.971   0.000   0.000   2.837
  P              25   up:     0.867   1.970   0.000   0.000   2.837    -0.674       -0.001
                 25   dn:     0.867   1.971   0.000   0.000   2.838
  P              26   up:     0.864   1.979   0.000   0.000   2.843    -0.679        0.008
                 26   dn:     0.864   1.972   0.000   0.000   2.836
  P              27   up:     0.873   1.966   0.000   0.000   2.839    -0.642        0.036
                 27   dn:     0.867   1.936   0.000   0.000   2.803
  P              28   up:     0.867   1.970   0.000   0.000   2.837    -0.674       -0.000
                 28   dn:     0.867   1.970   0.000   0.000   2.837
  P              29   up:     0.866   1.972   0.000   0.000   2.838    -0.675        0.001
                 29   dn:     0.866   1.971   0.000   0.000   2.837
  P              30   up:     0.867   1.970   0.000   0.000   2.837    -0.674       -0.000
                 30   dn:     0.867   1.970   0.000   0.000   2.837
  P              31   up:     0.867   1.970   0.000   0.000   2.837    -0.674       -0.000
                 31   dn:     0.867   1.970   0.000   0.000   2.837
  P              32   up:     0.867   1.970   0.000   0.000   2.837    -0.674       -0.000
                 32   dn:     0.867   1.970   0.000   0.000   2.837
  P              33   up:     0.898   2.035   0.000   0.000   2.932    -0.453        0.411
                 33   dn:     0.889   1.633   0.000   0.000   2.521
  In              1   up:     0.450   0.714   4.995   0.000   6.159     0.682       -0.000
                  1   dn:     0.450   0.714   4.995   0.000   6.159
  In              2   up:     0.421   0.700   4.995   0.000   6.117     0.734       -0.032
                  2   dn:     0.439   0.717   4.994   0.000   6.149
  In              3   up:     0.444   0.719   4.995   0.000   6.158     0.687        0.003
                  3   dn:     0.441   0.719   4.995   0.000   6.155
  In              4   up:     0.447   0.736   4.993   0.000   6.177     0.632       -0.014
                  4   dn:     0.455   0.743   4.993   0.000   6.191
  In              5   up:     0.442   0.721   4.995   0.000   6.158     0.686        0.002
                  5   dn:     0.440   0.721   4.995   0.000   6.156
  In              6   up:     0.450   0.714   4.995   0.000   6.159     0.682       -0.000
                  6   dn:     0.450   0.714   4.995   0.000   6.159
  In              7   up:     0.444   0.731   4.994   0.000   6.169     0.661       -0.002
                  7   dn:     0.444   0.733   4.994   0.000   6.170
  In              8   up:     0.444   0.719   4.995   0.000   6.158     0.687        0.003
                  8   dn:     0.441   0.719   4.995   0.000   6.155
  In              9   up:     0.443   0.725   4.994   0.000   6.162     0.678        0.001
                  9   dn:     0.443   0.723   4.994   0.000   6.160
  In             10   up:     0.442   0.722   4.995   0.000   6.158     0.685        0.002
                 10   dn:     0.442   0.720   4.995   0.000   6.157
  In             11   up:     0.448   0.734   4.994   0.000   6.176     0.656        0.008
                 11   dn:     0.446   0.728   4.994   0.000   6.168
  In             12   up:     0.452   0.718   4.995   0.000   6.164     0.677        0.006
                 12   dn:     0.449   0.715   4.995   0.000   6.159
  In             13   up:     0.442   0.725   4.994   0.000   6.161     0.678        0.001
                 13   dn:     0.441   0.725   4.994   0.000   6.160
  In             14   up:     0.443   0.725   4.994   0.000   6.162     0.678        0.001
                 14   dn:     0.443   0.723   4.994   0.000   6.160
  In             15   up:     0.441   0.724   4.995   0.000   6.160     0.681       -0.000
                 15   dn:     0.441   0.724   4.995   0.000   6.160
  In             16   up:     0.448   0.734   4.994   0.000   6.176     0.656        0.008
                 16   dn:     0.446   0.728   4.994   0.000   6.168
  In             17   up:     0.421   0.700   4.995   0.000   6.117     0.734       -0.032
                 17   dn:     0.439   0.717   4.994   0.000   6.149
  In             18   up:     0.450   0.714   4.995   0.000   6.159     0.682       -0.000
                 18   dn:     0.450   0.714   4.995   0.000   6.159
  In             19   up:     0.447   0.736   4.993   0.000   6.177     0.632       -0.014
                 19   dn:     0.455   0.743   4.993   0.000   6.191
  In             20   up:     0.444   0.719   4.995   0.000   6.158     0.687        0.003
                 20   dn:     0.441   0.719   4.995   0.000   6.155
  In             21   up:     0.450   0.714   4.995   0.000   6.159     0.682       -0.000
                 21   dn:     0.450   0.714   4.995   0.000   6.159
  In             22   up:     0.442   0.721   4.995   0.000   6.158     0.686        0.002
                 22   dn:     0.440   0.721   4.995   0.000   6.156
  In             23   up:     0.444   0.719   4.995   0.000   6.158     0.687        0.003
                 23   dn:     0.441   0.719   4.995   0.000   6.155
  In             24   up:     0.444   0.731   4.994   0.000   6.169     0.661       -0.002
                 24   dn:     0.444   0.733   4.994   0.000   6.170
  In             25   up:     0.442   0.722   4.995   0.000   6.158     0.685        0.002
                 25   dn:     0.442   0.720   4.995   0.000   6.157
  In             26   up:     0.443   0.725   4.994   0.000   6.162     0.678        0.001
                 26   dn:     0.443   0.723   4.994   0.000   6.160
  In             27   up:     0.452   0.718   4.995   0.000   6.164     0.677        0.006
                 27   dn:     0.449   0.715   4.995   0.000   6.159
  In             28   up:     0.448   0.734   4.994   0.000   6.176     0.656        0.008
                 28   dn:     0.446   0.728   4.994   0.000   6.168
  In             29   up:     0.443   0.725   4.994   0.000   6.162     0.678        0.001
                 29   dn:     0.443   0.723   4.994   0.000   6.160
  In             30   up:     0.442   0.725   4.994   0.000   6.161     0.678        0.001
                 30   dn:     0.441   0.725   4.994   0.000   6.160
  In             31   up:     0.448   0.734   4.994   0.000   6.176     0.656        0.008
                 31   dn:     0.446   0.728   4.994   0.000   6.168
  In             32   up:     0.441   0.724   4.995   0.000   6.160     0.681       -0.000
                 32   dn:     0.441   0.724   4.995   0.000   6.160
==============================================================================================

                 Bond                   Population        Spin       Length (A)
================================================================================
              P 2  -- P 33                   0.35        -0.12          2.14144
              P 33 -- In 4                   0.75        -0.01          2.47042
              P 2  -- In 19                  0.75        -0.01          2.47047
              P 5  -- In 7                   0.69         0.00          2.50549
              P 17 -- In 24                  0.69         0.00          2.50550
              P 22 -- In 7                   0.66         0.00          2.51670
              P 22 -- In 24                  0.66         0.00          2.51670
              P 8  -- In 4                   0.65        -0.00          2.52200
              P 3  -- In 4                   0.65        -0.00          2.52202
              P 4  -- In 19                  0.65        -0.00          2.52202
              P 19 -- In 19                  0.65        -0.00          2.52202
              P 12 -- In 16                  0.63        -0.00          2.53155
              P 16 -- In 31                  0.63        -0.00          2.53156
              P 27 -- In 28                  0.63        -0.00          2.53156
              P 11 -- In 11                  0.63        -0.00          2.53157
              P 14 -- In 16                  0.65        -0.00          2.53269
              P 26 -- In 11                  0.65        -0.00          2.53270
              P 14 -- In 31                  0.65        -0.00          2.53270
              P 26 -- In 28                  0.65        -0.00          2.53270
              P 14 -- In 14                  0.67         0.00          2.53309
              P 26 -- In 9                   0.67         0.00          2.53310
              P 14 -- In 29                  0.67         0.00          2.53310
              P 26 -- In 26                  0.67         0.00          2.53311
              P 1  -- In 2                   0.68         0.00          2.53933
              P 21 -- In 17                  0.68         0.00          2.53935
              P 9  -- In 13                  0.67         0.00          2.54241
              P 29 -- In 30                  0.67         0.00          2.54241
              P 10 -- In 10                  0.66         0.00          2.54352
              P 10 -- In 25                  0.66         0.00          2.54352
              P 8  -- In 14                  0.64        -0.00          2.54370
              P 3  -- In 9                   0.64        -0.00          2.54370
              P 4  -- In 29                  0.64        -0.00          2.54370
              P 19 -- In 26                  0.64        -0.00          2.54371
              P 7  -- In 13                  0.66        -0.00          2.54612
              P 24 -- In 30                  0.66        -0.00          2.54612
              P 20 -- In 13                  0.66        -0.00          2.54612
              P 23 -- In 30                  0.66        -0.00          2.54612
              P 25 -- In 26                  0.67         0.00          2.54650
              P 13 -- In 14                  0.67         0.00          2.54650
              P 13 -- In 9                   0.67         0.00          2.54650
              P 25 -- In 29                  0.67         0.00          2.54650
              P 15 -- In 16                  0.66         0.00          2.54757
              P 32 -- In 28                  0.66         0.00          2.54757
              P 31 -- In 31                  0.66         0.00          2.54757
              P 28 -- In 11                  0.66         0.00          2.54758
              P 18 -- In 3                   0.66         0.00          2.54762
              P 6  -- In 23                  0.66         0.00          2.54762
              P 6  -- In 8                   0.66         0.00          2.54763
              P 18 -- In 20                  0.66         0.00          2.54763
              P 15 -- In 15                  0.67         0.00          2.54775
              P 32 -- In 15                  0.67         0.00          2.54776
              P 28 -- In 32                  0.67         0.00          2.54776
              P 31 -- In 32                  0.67         0.00          2.54776
              P 12 -- In 2                   0.63        -0.01          2.54808
              P 16 -- In 17                  0.63        -0.01          2.54809
              P 11 -- In 2                   0.63        -0.01          2.54810
              P 27 -- In 17                  0.63        -0.01          2.54810
              P 29 -- In 25                  0.66        -0.00          2.54886
              P 9  -- In 10                  0.66        -0.00          2.54886
              P 7  -- In 7                   0.65         0.00          2.55048
              P 24 -- In 7                   0.65         0.00          2.55048
              P 20 -- In 24                  0.65         0.00          2.55048
              P 23 -- In 24                  0.65         0.00          2.55048
              P 16 -- In 12                  0.66        -0.00          2.55129
              P 11 -- In 12                  0.66        -0.00          2.55130
              P 27 -- In 27                  0.66        -0.00          2.55130
              P 12 -- In 27                  0.66        -0.00          2.55130
              P 22 -- In 5                   0.67         0.00          2.55144
              P 22 -- In 22                  0.67         0.00          2.55144
              P 9  -- In 16                  0.65        -0.00          2.55184
              P 29 -- In 31                  0.65        -0.00          2.55184
              P 29 -- In 28                  0.65        -0.00          2.55185
              P 9  -- In 11                  0.65        -0.00          2.55185
              P 31 -- In 22                  0.67         0.00          2.55247
              P 28 -- In 5                   0.67         0.00          2.55247
              P 32 -- In 22                  0.67         0.00          2.55248
              P 15 -- In 5                   0.67         0.00          2.55248
              P 23 -- In 29                  0.66        -0.00          2.55287
              P 7  -- In 14                  0.66        -0.00          2.55287
              P 20 -- In 26                  0.66        -0.00          2.55287
              P 24 -- In 9                   0.66        -0.00          2.55287
              P 30 -- In 32                  0.66         0.00          2.55309
              P 30 -- In 15                  0.66         0.00          2.55309
              P 5  -- In 1                   0.67         0.00          2.55343
              P 17 -- In 21                  0.67         0.00          2.55343
              P 17 -- In 18                  0.67         0.00          2.55343
              P 5  -- In 6                   0.67         0.00          2.55343
              P 1  -- In 8                   0.66         0.00          2.55504
              P 21 -- In 20                  0.66         0.00          2.55504
              P 21 -- In 23                  0.66         0.00          2.55505
              P 1  -- In 3                   0.66         0.00          2.55505
              P 25 -- In 32                  0.65        -0.00          2.55520
              P 13 -- In 15                  0.65         0.00          2.55520
              P 23 -- In 23                  0.66         0.00          2.55524
              P 24 -- In 20                  0.66         0.00          2.55524
              P 7  -- In 8                   0.66         0.00          2.55525
              P 20 -- In 3                   0.66         0.00          2.55525
              P 4  -- In 10                  0.65        -0.00          2.55558
              P 3  -- In 10                  0.65        -0.00          2.55559
              P 8  -- In 25                  0.65        -0.00          2.55559
              P 19 -- In 25                  0.65        -0.00          2.55559
              P 30 -- In 30                  0.66         0.00          2.55623
              P 30 -- In 13                  0.66         0.00          2.55623
              P 25 -- In 27                  0.66         0.00          2.55699
              P 13 -- In 12                  0.66         0.00          2.55700
              P 10 -- In 27                  0.64         0.00          2.55797
              P 10 -- In 12                  0.64         0.00          2.55797
              P 1  -- In 5                   0.64         0.00          2.55910
              P 21 -- In 22                  0.64         0.00          2.55911
              P 6  -- In 6                   0.65        -0.00          2.56026
              P 18 -- In 1                   0.65        -0.00          2.56026
              P 6  -- In 21                  0.65        -0.00          2.56026
              P 18 -- In 18                  0.65         0.00          2.56027
              P 28 -- In 18                  0.64        -0.00          2.56133
              P 31 -- In 21                  0.64        -0.00          2.56134
              P 15 -- In 6                   0.64        -0.00          2.56134
              P 32 -- In 1                   0.64        -0.00          2.56136
              P 4  -- In 8                   0.67         0.00          2.56140
              P 19 -- In 20                  0.67         0.00          2.56141
              P 3  -- In 3                   0.67         0.00          2.56141
              P 8  -- In 23                  0.67         0.00          2.56141
              P 12 -- In 21                  0.65         0.01          2.56775
              P 27 -- In 18                  0.65         0.01          2.56776
              P 11 -- In 1                   0.65         0.01          2.56776
              P 16 -- In 6                   0.65         0.01          2.56776
              P 17 -- In 19                  0.53         0.00          2.57540
              P 5  -- In 4                   0.53         0.00          2.57542
              P 2  -- In 2                   0.30        -0.00          2.72047
              P 2  -- In 17                  0.30        -0.00          2.72061
              P 33 -- In 17                  0.30        -0.00          2.72066
              P 33 -- In 2                   0.30        -0.00          2.72085
================================================================================

 Hirshfeld supercell size:           2           2           2
Standard grid dimensions: 240 240 240
Fine grid dimensions:     240 240 240


     Hirshfeld Analysis
     ------------------
Species   Ion     Hirshfeld Charge (e)  Spin (hbar/2)
===================================================
  P        1                -0.23        0.00
  P        2                -0.16        0.31
  P        3                -0.24        0.01
  P        4                -0.24        0.01
  P        5                -0.24        0.00
  P        6                -0.24        0.00
  P        7                -0.24        0.00
  P        8                -0.24        0.01
  P        9                -0.24        0.00
  P       10                -0.24       -0.00
  P       11                -0.23        0.03
  P       12                -0.23        0.03
  P       13                -0.24        0.00
  P       14                -0.24        0.01
  P       15                -0.24        0.00
  P       16                -0.23        0.03
  P       17                -0.24        0.00
  P       18                -0.24        0.00
  P       19                -0.24        0.01
  P       20                -0.24        0.00
  P       21                -0.23        0.00
  P       22                -0.24       -0.00
  P       23                -0.24        0.00
  P       24                -0.24        0.00
  P       25                -0.24        0.00
  P       26                -0.24        0.01
  P       27                -0.23        0.03
  P       28                -0.24        0.00
  P       29                -0.24        0.00
  P       30                -0.24        0.00
  P       31                -0.24        0.00
  P       32                -0.24        0.00
  P       33                -0.16        0.31
  In       1                 0.25        0.00
  In       2                 0.26        0.04
  In       3                 0.25        0.00
  In       4                 0.22        0.02
  In       5                 0.24       -0.00
  In       6                 0.25        0.00
  In       7                 0.23       -0.00
  In       8                 0.25        0.00
  In       9                 0.24        0.00
  In      10                 0.24        0.00
  In      11                 0.23        0.01
  In      12                 0.24        0.00
  In      13                 0.23        0.00
  In      14                 0.24        0.00
  In      15                 0.24        0.00
  In      16                 0.23        0.01
  In      17                 0.26        0.04
  In      18                 0.25        0.00
  In      19                 0.22        0.02
  In      20                 0.25        0.00
  In      21                 0.25        0.00
  In      22                 0.24       -0.00
  In      23                 0.25        0.00
  In      24                 0.23       -0.00
  In      25                 0.24        0.00
  In      26                 0.24        0.00
  In      27                 0.24        0.00
  In      28                 0.23        0.01
  In      29                 0.24        0.00
  In      30                 0.23        0.00
  In      31                 0.23        0.01
  In      32                 0.24        0.00
===================================================

 
 A BibTeX formatted list of references used in this run has been written to 
 P_Interstitial_Migration_Dumbbell_Dumbbell+_Singlepoints_7.bib
 
Initialisation time =     30.39 s
Calculation time    =   7890.18 s
Finalisation time   =    154.50 s
Total time          =   8075.07 s
Peak Memory Use     = 9697308 kB
 
Overall parallel efficiency rating: Poor (35%)
 
Data was distributed by:-
G-vector (3-way); efficiency rating: Poor (38%)
k-point (36-way); efficiency rating: Very good (83%)
