 +-------------------------------------------------+
 |                                                 |
 |      CCC   AA    SSS  TTTTT  EEEEE  PPPP        |
 |     C     A  A  S       T    E      P   P       |
 |     C     AAAA   SS     T    EEE    PPPP        |
 |     C     A  A     S    T    E      P           |
 |      CCC  A  A  SSS     T    EEEEE  P           |
 |                                                 |
 +-------------------------------------------------+
 |                                                 |
 | Welcome to Academic Release CASTEP version 24.1 |
 | Ab Initio Total Energy Program                  |
 |                                                 |
 | Authors:                                        |
 | M. Segall, M. Probert, C. Pickard, P. Hasnip,   |
 | S. Clark, K. Refson, J. R. Yates,               |
 | A. Bartok-Partay, M. Payne                      |
 |                                                 |
 | Contributors:                                   |
 | P. Lindan, P. Haynes, J. White, V. Milman,      |
 | N. Govind, M. Gibson, P. Tulip, V. Cocula,      |
 | B. Montanari, D. Quigley, M. Glover,            |
 | L. Bernasconi, A. Perlov, M. Plummer,           |
 | E. McNellis, J. Meyer, J. Gale, D. Jochym       |
 | J. Aarons, B. Walker, R. Gillen, D. Jones       |
 | T. Green, I. J. Bush, C. J. Armstrong,          |
 | E. J. Higgins, E. L. Brown, M. S. McFly,        |
 | J. Wilkins, B-C. Shih, P. J. P. Byrne,          |
 | R. J. Maurer, J. C. Womack, J. Dziedzic,        |
 | L. LeBlanc, T. K. Stenczel, J. Kermode,         |
 | S. Sturniolo, B. Shi, B. Durham, M. Evans,      |
 | M. J. Smith, A. Tamerus, Z. Hawkhead,           |
 | V. Ravindran, T. Hollins, S. A. Joyce,          |
 | R. T. Strong, A. M. Reilly, S. J. Donaldson     |
 |                                                 |
 | Copyright (c) 2000 - 2023                       |
 |                                                 |
 |     Distributed under license from Cambridge    |
 |     Enterprise for academic use only.           |
 |                                                 |
 | Please cite                                     |
 |                                                 |
 |     "First principles methods using CASTEP"     |
 |                                                 |
 |         Zeitschrift fuer Kristallographie       |
 |           220(5-6) pp. 567-570 (2005)           |
 |                                                 |
 | S. J. Clark, M. D. Segall, C. J. Pickard,       |
 | P. J. Hasnip, M. J. Probert, K. Refson,         |
 | M. C. Payne                                     |
 |                                                 |
 |       in all publications arising from          |
 |              your use of CASTEP                 |
 |                                                 |
 +-------------------------------------------------+
 |                                                 |
 |              http://www.castep.org              |
 |                                                 |
 +-------------------------------------------------+



 Compiled for  GNU 11.2.0 on 04-04-2024 18:39:17
 from code version 6355fd106 Castep241_branch Thu Mar 7 17:56:19 2024 +0000
 Compiler: GNU Fortran 11.2.0; Optimisation: FAST
 Comms   : MPI VERSION : CRAY MPICH version 8.1.23.14 (ANL base 3.4a2)
 MATHLIBS: default (LAPACK version 3.10.1)
 FFT Lib : fftw3 version commercial-fftw-3.3.10-sse2-avx-avx2-avx2_128
 Fundamental constants values: CODATA 2018

 Run started: Wed, 30 Jul 2025 16:58:01 +0100

 Atomic calculation performed for P: 1s2 2s2 2p6 3s2 3p3

 Converged in 47 iterations to an ae energy of -9309.074 eV

   ============================================================                
   | Pseudopotential Report - Date of generation 30-07-2025   |                
   ------------------------------------------------------------                
   | Element: P Ionic charge:  5.00 Level of theory: RSCAN    |                
   | Atomic Solver: Koelling-Harmon                           |                
   |                                                          |                
   |               Reference Electronic Structure             |                
   |         Orbital         Occupation         Energy        |                
   |            3s              2.000           -0.535        |                
   |            3p              3.000           -0.209        |                
   |                                                          |                
   |                 Pseudopotential Definition               |                
   |        Beta     l      e      Rc     scheme   norm       |                
   |          1      0   -0.535   1.807     qc      0         |                
   |          2      0    0.250   1.807     qc      0         |                
   |          3      1   -0.209   1.807     qc      0         |                
   |          4      1    0.250   1.807     qc      0         |                
   |          5      2    0.000   1.807     qc      0         |                
   |          6      2    0.250   1.807     qc      0         |                
   |         loc     3    0.000   1.807     pn      0         |                
   |                                                          |                
   | Augmentation charge Rinner = 1.263                       |                
   | Partial core correction Rc = 1.263                       |                
   ------------------------------------------------------------                
   | "3|1.8|4|4|5|30:31:32"                                   |                
   ------------------------------------------------------------                
   |      Author: Chris J. Pickard, Cambridge University      |                
   ============================================================                
 Warning: otfg_output_psp cannot write out meta-GGA pseudopotentials presently.

 Atomic calculation performed for In:
 1s2 2s2 2p6 3s2 3p6 3d10 4s2 4p6 4d10 5s2 5p1

 Converged in 84 iterations to an ae energy of -160093.328 eV

   ============================================================                
   | Pseudopotential Report - Date of generation 30-07-2025   |                
   ------------------------------------------------------------                
   | Element: In Ionic charge: 13.00 Level of theory: RSCAN   |                
   | Atomic Solver: Koelling-Harmon                           |                
   |                                                          |                
   |               Reference Electronic Structure             |                
   |         Orbital         Occupation         Energy        |                
   |            4d             10.000           -0.711        |                
   |            5s              2.000           -0.313        |                
   |            5p              1.000           -0.095        |                
   |                                                          |                
   |                 Pseudopotential Definition               |                
   |        Beta     l      e      Rc     scheme   norm       |                
   |          1      0   -0.313   2.501     qc      0         |                
   |          2      0    0.250   2.501     qc      0         |                
   |          3      1   -0.095   2.501     qc      0         |                
   |          4      1    0.250   2.501     qc      0         |                
   |          5      2   -0.711   2.207     qc      0         |                
   |          6      2    0.250   2.207     qc      0         |                
   |         loc     3    0.000   2.501     pn      0         |                
   |                                                          |                
   | Augmentation charge Rinner = 1.504                       |                
   | Partial core correction Rc = 1.504                       |                
   ------------------------------------------------------------                
   | "3|2.5|2.5|1.5|7|8|9|50:51:42U2.2U2.2"                   |                
   ------------------------------------------------------------                
   |      Author: Chris J. Pickard, Cambridge University      |                
   ============================================================                
 Warning: otfg_output_psp cannot write out meta-GGA pseudopotentials presently.

 Pseudo atomic calculation performed for P 3s2 3p3

 Converged in 23 iterations to a total energy of -208.0292 eV

 Pseudo atomic calculation performed for In 4d10 5s2 5p1

 Converged in 42 iterations to a total energy of -1747.4501 eV
 Calculation parallelised over 108 processes.
 Data is distributed by G-vector(3-way) and k-point(36-way)
 Each process may use up to 16 threads.

 ************************************ Title ************************************
 

 ***************************** General Parameters ******************************
  
 output verbosity                               : normal  (1)
 write checkpoint data to                       : P_Interstitial_Migration_Dumbbell_Dumbbell+_Singlepoints_7.check
 type of calculation                            : single point energy
 stress calculation                             : off
 density difference calculation                 : off
 electron localisation func (ELF) calculation   : off
 Hirshfeld analysis                             : on
 polarisation (Berry phase) analysis            : off
 molecular orbital projected DOS                : off
 deltaSCF calculation                           : off
 unlimited duration calculation
 timing information                             : on
 memory usage estimate                          : on
 write extra output files                       : on
 write final potential to formatted file        : off
 write final density to formatted file          : off
 write BibTeX reference list                    : on
 write OTFG pseudopotential files               : on
 write electrostatic potential file             : on
 write bands file                               : on
 checkpoint writing                             : off
  
 output         length unit                     : A
 output           mass unit                     : amu
 output           time unit                     : ps
 output         charge unit                     : e
 output           spin unit                     : hbar/2
 output         energy unit                     : eV
 output          force unit                     : eV/A
 output       velocity unit                     : A/ps
 output       pressure unit                     : GPa
 output     inv_length unit                     : 1/A
 output      frequency unit                     : cm-1
 output force constant unit                     : eV/A**2
 output         volume unit                     : A**3
 output   IR intensity unit                     : (D/A)**2/amu
 output         dipole unit                     : D
 output         efield unit                     : eV/A/e
 output        entropy unit                     : J/mol/K
 output    efield chi2 unit                     : pm/V
  
 wavefunctions paging                           : none
 random number generator seed                   :  165802134
 data distribution                              : optimal for this architecture
 optimization strategy                          : balance speed and memory

 *********************** Exchange-Correlation Parameters ***********************
  
 using functional                               : RSCAN
 relativistic treatment                         : Koelling-Harmon
 DFT+D: Semi-empirical dispersion correction    : off

 ************************* Pseudopotential Parameters **************************
  
 pseudopotential representation                 : reciprocal space
 <beta|phi> representation                      : reciprocal space
 spin-orbit coupling                            : off

 **************************** Basis Set Parameters *****************************
  
 plane wave basis set cut-off                   :   900.0000   eV
 size of standard grid                          :     2.0000
 size of   fine   gmax                          :    30.7390   1/A
 finite basis set correction                    : none

 **************************** Electronic Parameters ****************************
  
 number of  electrons                           :  581.0    
 net charge of system                           :  0.000    
 net spin   of system                           :  1.000    
 number of  up  spins                           :  291.0    
 number of down spins                           :  290.0    
 treating system as spin-polarized
 number of bands                                :        349

 ********************* Electronic Minimization Parameters **********************
  
 Method: Treating system as metallic with density mixing treatment of electrons,
         and number of  SD  steps               :          1
         and number of  CG  steps               :          4
  
 total energy / atom convergence tol.           : 0.1000E-07   eV
 eigen-energy convergence tolerance             : 0.2234E-08   eV
 max force / atom convergence tol.              : ignored
 convergence tolerance window                   :          3   cycles
 max. number of SCF cycles                      :        100
 number of fixed-spin iterations                :         10
 smearing scheme                                : Gaussian
 smearing width                                 : 0.2000       eV
 Fermi energy convergence tolerance             : 0.2721E-13   eV
 periodic dipole correction                     : NONE

 ************************** Density Mixing Parameters **************************
  
 density-mixing scheme                          : Pulay
 max. length of mixing history                  :         20
 charge density mixing amplitude                : 0.5000    
   spin density mixing amplitude                :  2.000    
 cut-off energy for mixing                      :  900.0       eV

 *********************** Population Analysis Parameters ************************
  
 Population analysis with cutoff                :  3.000       A
 Population analysis output                     : summary and pdos components

 *******************************************************************************
  

                           -------------------------------
                                      Unit Cell
                           -------------------------------
        Real Lattice(A)                      Reciprocal Lattice(1/A)
    11.8016820    -0.0000080    -0.0000080        0.532397442   0.000000361   0.000000361
    -0.0000080    11.8016820    -0.0000080        0.000000361   0.532397442   0.000000361
    -0.0000080    -0.0000080    11.8016820        0.000000361   0.000000361   0.532397442

                       Lattice parameters(A)       Cell Angles
                    a =     11.801682          alpha =   90.000078
                    b =     11.801682          beta  =   90.000078
                    c =     11.801682          gamma =   90.000078

                       Current cell volume =          1643.734705       A**3
                                   density =             2.857097   AMU/A**3
                                           =             4.744322     g/cm^3

                           -------------------------------
                                     Cell Contents
                           -------------------------------
                         Total number of ions in cell =   65
                      Total number of species in cell =    2
                        Max number of any one species =   33

            xxxxxxxxxxxxxxxxxxxxxxxxxxxxxxxxxxxxxxxxxxxxxxxxxxxxxxxxxxxx
            x  Element    Atom        Fractional coordinates of atoms  x
            x            Number           u          v          w      x
            x----------------------------------------------------------x
            x  P            1         0.123826   0.123808   0.372329   x 
            x  P            2         0.437245   0.085158   0.187245   x 
            x  P            3         0.120095   0.378961   0.125361   x 
            x  P            4         0.370793   0.378961   0.376059   x 
            x  P            5         0.115035   0.128160   0.865035   x 
            x  P            6         0.373077   0.123934   0.623077   x 
            x  P            7         0.122303   0.373987   0.622042   x 
            x  P            8         0.375361   0.378962   0.870095   x 
            x  P            9         0.122228   0.624952   0.373927   x 
            x  P           10         0.373078   0.627360   0.123078   x 
            x  P           11         0.117098   0.868484   0.123120   x 
            x  P           12         0.373036   0.868482   0.379059   x 
            x  P           13         0.122430   0.624073   0.872430   x 
            x  P           14         0.373078   0.620917   0.623077   x 
            x  P           15         0.123391   0.874076   0.624090   x 
            x  P           16         0.373120   0.868484   0.867097   x 
            x  P           17         0.631118   0.128159   0.381118   x 
            x  P           18         0.873077   0.123934   0.123077   x 
            x  P           19         0.626059   0.378960   0.120794   x 
            x  P           20         0.874113   0.373987   0.373851   x 
            x  P           21         0.622329   0.123808   0.873826   x 
            x  P           22         0.873077   0.119432   0.623077   x 
            x  P           23         0.623851   0.373987   0.624113   x 
            x  P           24         0.872042   0.373987   0.872304   x 
            x  P           25         0.623725   0.624072   0.373725   x 
            x  P           26         0.873077   0.620917   0.123078   x 
            x  P           27         0.629059   0.868483   0.123035   x 
            x  P           28         0.872065   0.874075   0.372764   x 
            x  P           29         0.623927   0.624952   0.872228   x 
            x  P           30         0.873078   0.623860   0.623078   x 
            x  P           31         0.622765   0.874075   0.622065   x 
            x  P           32         0.874091   0.874076   0.873391   x 
            x  P           33         0.308905   0.085159   0.058904   x 
            x  In           1        -0.000361   0.001055  -0.003211   x 
            x  In           2         0.240829  -0.013781   0.255329   x 
            x  In           3        -0.002363   0.248328   0.248028   x 
            x  In           4         0.234582   0.266077  -0.015419   x 
            x  In           5        -0.000743  -0.002646   0.496898   x 
            x  In           6         0.246789   0.001055   0.749638   x 
            x  In           7        -0.007801   0.250148   0.742199   x 
            x  In           8         0.248127   0.248328   0.498518   x 
            x  In           9        -0.003136   0.499800  -0.003693   x 
            x  In          10         0.248454   0.503284   0.247701   x 
            x  In          11        -0.006130   0.745978   0.248877   x 
            x  In          12         0.246848   0.750363  -0.003152   x 
            x  In          13        -0.001559   0.499453   0.497714   x 
            x  In          14         0.246307   0.499800   0.746864   x 
            x  In          15        -0.002379   0.749478   0.747622   x 
            x  In          16         0.247278   0.745977   0.502286   x 
            x  In          17         0.505328  -0.013781  -0.009172   x 
            x  In          18         0.746518   0.001054   0.249366   x 
            x  In          19         0.511572   0.266074   0.261572   x 
            x  In          20         0.748518   0.248328  -0.001873   x 
            x  In          21         0.499367   0.001054   0.496518   x 
            x  In          22         0.746899  -0.002646   0.749257   x 
            x  In          23         0.498028   0.248328   0.747637   x 
            x  In          24         0.753955   0.250147   0.503955   x 
            x  In          25         0.497701   0.503284  -0.001546   x 
            x  In          26         0.749291   0.499799   0.249848   x 
            x  In          27         0.499308   0.750362   0.249308   x 
            x  In          28         0.752286   0.745978  -0.002722   x 
            x  In          29         0.499847   0.499799   0.499291   x 
            x  In          30         0.747714   0.499453   0.748441   x 
            x  In          31         0.498877   0.745978   0.743869   x 
            x  In          32         0.748534   0.749477   0.498534   x 
            xxxxxxxxxxxxxxxxxxxxxxxxxxxxxxxxxxxxxxxxxxxxxxxxxxxxxxxxxxxx


                         No user defined ionic velocities

                           -------------------------------
                                   Details of Species
                           -------------------------------

                               Mass of species in AMU
                                    P   30.9737600
                                    In  114.8180000

                          Electric Quadrupole Moment (Barn)
                                    P    1.0000000 No Isotope Defined
                                    In    0.7700000 Isotope115

                          Files used for pseudopotentials:
                                    P 3|1.8|4|4|5|30:31:32
                                    In 3|2.5|2.5|1.5|7|8|9|50:51:42U2.2U2.2

                           -------------------------------
                              k-Points For BZ Sampling
                           -------------------------------
                       MP grid size for SCF calculation is  4  4  4
                            with an offset of   0.125  0.125  0.125
                       Number of kpoints used =            36

                           -------------------------------
                               Symmetry and Constraints
                           -------------------------------

                      Maximum deviation from symmetry =  0.00000         ANG

                      Number of symmetry operations   =           1
                      Number of ionic constraints     =           3
                      Point group of crystal =     1: C1, 1, 1
                      Space group of crystal =    35: Cmm2, C 2 -2

             Set iprint > 1 for details on symmetry rotations/translations

                         Centre of mass is constrained
             Set iprint > 1 for details of linear ionic constraints

                         Number of cell constraints= 0
                         Cell constraints are:  1 2 3 4 5 6

                         External pressure/stress (GPa)
                          0.00000   0.00000   0.00000
                                    0.00000   0.00000
                                              0.00000
 
+---------------- MEMORY AND SCRATCH DISK ESTIMATES PER PROCESS --------------+
|                                                     Memory          Disk    |
| Baseline code, static data and system overhead      368.0 MB         0.0 MB |
| BLAS internal memory storage                          0.0 MB         0.0 MB |
| Model and support data                             4327.0 MB         0.0 MB |
| Electronic energy minimisation requirements        1337.1 MB         0.0 MB |
| Force calculation requirements                      127.4 MB         0.0 MB |
|                                               ----------------------------- |
| Approx. total storage required per process         6032.2 MB         0.0 MB |
|                                                                             |
| Requirements will fluctuate during execution and may exceed these estimates |
+-----------------------------------------------------------------------------+
Calculating approximate eigenstates for fixed initial Hamiltonian
Cut-off for approx. calculation is   89.988 eV
Improving approx. states at cut-off of  450.000 eV
Resetting cut-off to  900.000 eV
Calculating total energy with cut-off of  900.000 eV.
------------------------------------------------------------------------ <-- SCF
SCF loop      Energy           Fermi           Energy gain       Timer   <-- SCF
                               energy          per atom          (sec)   <-- SCF
------------------------------------------------------------------------ <-- SCF
Initial  -6.32544844E+004  0.00000000E+000                       441.50  <-- SCF
      1  -6.30179737E+004  2.90495715E+000  -3.63862643E+000     898.72  <-- SCF
      2  -6.30182607E+004  2.90450295E+000   4.41464300E-003    1212.95  <-- SCF
      3  -6.30841750E+004  3.18599546E+000   1.01406716E+000    1570.17  <-- SCF
      4  -6.30957870E+004  3.26959135E+000   1.78645826E-001    2075.51  <-- SCF
      5  -6.31016022E+004  3.43923716E+000   8.94643170E-002    2424.32  <-- SCF
      6  -6.30902969E+004  3.62482978E+000  -1.73928097E-001    2774.09  <-- SCF
      7  -6.30889601E+004  3.67229453E+000  -2.05660764E-002    3141.89  <-- SCF
      8  -6.30891170E+004  3.71205902E+000   2.41436278E-003    3509.66  <-- SCF
      9  -6.30899398E+004  3.73702640E+000   1.26589286E-002    3857.29  <-- SCF
     10  -6.30902132E+004  3.71229028E+000   4.20538685E-003    4216.74  <-- SCF
     11  -6.30902189E+004  3.70526942E+000   8.82866696E-005    4584.88  <-- SCF
     12  -6.30902213E+004  3.69919766E+000   3.64714456E-005    4950.62  <-- SCF
     13  -6.30902224E+004  3.69867202E+000   1.63640658E-005    5310.97  <-- SCF
     14  -6.30902226E+004  3.69770596E+000   3.82428492E-006    5676.75  <-- SCF
     15  -6.30902227E+004  3.69698101E+000   9.54031182E-007    6033.49  <-- SCF
     16  -6.30902227E+004  3.69690622E+000   2.69029021E-007    6338.05  <-- SCF
     17  -6.30902227E+004  3.69675775E+000   7.75240739E-008    6628.07  <-- SCF
     18  -6.30902227E+004  3.69680586E+000   2.54392882E-008    6876.57  <-- SCF
     19  -6.30902227E+004  3.69684712E+000   8.58338962E-009    7131.57  <-- SCF
     20  -6.30902227E+004  3.69684884E+000   2.63477526E-009    7381.65  <-- SCF
     21  -6.30902227E+004  3.69685204E+000   7.30845538E-010    7641.74  <-- SCF
------------------------------------------------------------------------ <-- SCF
 
Integrated Spin Density     =    0.992772     hbar/2
Integrated |Spin Density|   =     1.21816     hbar/2
 
Final energy, E             =  -63090.21810625     eV
Final free energy (E-TS)    =  -63090.22269051     eV
(energies not corrected for finite basis set)
 
NB est. 0K energy (E-0.5TS)      =  -63090.22039838     eV
 

 ************************** Forces **************************
 *                                                          *
 *               Cartesian components (eV/A)                *
 * -------------------------------------------------------- *
 *                         x            y            z      *
 *                                                          *
 * P               1      0.00164      0.03627     -0.00608 *
 * P               2     -0.03260      0.00054     -0.03259 *
 * P               3      0.01994      0.00231     -0.01516 *
 * P               4      0.02003      0.00235     -0.00962 *
 * P               5      0.02329     -0.01764      0.02329 *
 * P               6     -0.00296     -0.02952     -0.00291 *
 * P               7     -0.02097     -0.02029     -0.01248 *
 * P               8     -0.01517      0.00231      0.01993 *
 * P               9     -0.00085      0.01588     -0.00287 *
 * P              10     -0.00348      0.00190     -0.00347 *
 * P              11     -0.00790      0.02447      0.00610 *
 * P              12     -0.01281      0.02570      0.01264 *
 * P              13     -0.01553      0.01691     -0.01554 *
 * P              14     -0.00432      0.02428     -0.00445 *
 * P              15      0.01410     -0.00126     -0.01821 *
 * P              16      0.00609      0.02447     -0.00789 *
 * P              17     -0.03145     -0.01701     -0.03145 *
 * P              18     -0.00291     -0.02952     -0.00296 *
 * P              19     -0.00961      0.00235      0.02003 *
 * P              20      0.00887     -0.01916      0.01607 *
 * P              21     -0.00607      0.03626      0.00164 *
 * P              22     -0.00391      0.04634     -0.00391 *
 * P              23      0.01607     -0.01915      0.00887 *
 * P              24     -0.01249     -0.02029     -0.02097 *
 * P              25      0.01048      0.01761      0.01048 *
 * P              26     -0.00446      0.02429     -0.00431 *
 * P              27      0.01265      0.02570     -0.01281 *
 * P              28      0.01452     -0.00201     -0.02001 *
 * P              29     -0.00287      0.01589     -0.00086 *
 * P              30     -0.00298     -0.00851     -0.00297 *
 * P              31     -0.02001     -0.00200      0.01452 *
 * P              32     -0.01820     -0.00125      0.01410 *
 * P              33      0.03450     -0.00028      0.03451 *
 * In              1     -0.01879      0.00746      0.01941 *
 * In              2     -0.01045     -0.07824      0.01379 *
 * In              3      0.00653      0.04259     -0.04907 *
 * In              4     -0.00297      0.03754     -0.00297 *
 * In              5     -0.03884     -0.02721      0.04193 *
 * In              6      0.01941      0.00746     -0.01878 *
 * In              7      0.02415     -0.00306      0.02414 *
 * In              8      0.05200      0.04264     -0.00360 *
 * In              9     -0.00856     -0.01108      0.05437 *
 * In             10     -0.02902     -0.01177      0.03198 *
 * In             11      0.01717     -0.02111     -0.01543 *
 * In             12      0.02836     -0.04809      0.02835 *
 * In             13      0.00447      0.02453     -0.00142 *
 * In             14      0.05438     -0.01107     -0.00855 *
 * In             15     -0.00959     -0.00839     -0.00960 *
 * In             16      0.01862     -0.02106     -0.01385 *
 * In             17      0.01380     -0.07824     -0.01045 *
 * In             18      0.02170      0.00740     -0.01634 *
 * In             19      0.00616      0.03762      0.00616 *
 * In             20     -0.00360      0.04264      0.05201 *
 * In             21     -0.01635      0.00741      0.02169 *
 * In             22      0.04192     -0.02721     -0.03884 *
 * In             23     -0.04907      0.04259      0.00653 *
 * In             24     -0.02101     -0.00309     -0.02101 *
 * In             25      0.03198     -0.01178     -0.02903 *
 * In             26      0.01157     -0.01118     -0.05130 *
 * In             27     -0.02531     -0.04804     -0.02531 *
 * In             28     -0.01385     -0.02106      0.01862 *
 * In             29     -0.05129     -0.01119      0.01157 *
 * In             30     -0.00142      0.02453      0.00447 *
 * In             31     -0.01543     -0.02111      0.01717 *
 * In             32      0.01268     -0.00839      0.01268 *
 *                                                          *
 ************************************************************

 Pseudo atomic calculation performed for P 3s2 3p3

 Converged in 23 iterations to a total energy of -208.0292 eV

 Pseudo atomic calculation performed for In 4d10 5s2 5p1

 Converged in 42 iterations to a total energy of -1747.4501 eV
Charge spilling parameter for spin component 1 = 0.18%
Charge spilling parameter for spin component 2 = 0.18%

                   Orbital Populations                  
  ---------------------------------------------------------------
     Ion    Atom   Orbital              Up        Down      Spin
  ---------------------------------------------------------------
      P     1      S                    0.868     0.868    -0.000
      P     1      Px                   0.658     0.658    -0.001
      P     1      Py                   0.653     0.654    -0.001
      P     1      Pz                   0.658     0.658    -0.001
      P     2      S                    0.897     0.889     0.009
      P     2      Px                   0.658     0.463     0.196
      P     2      Py                   0.718     0.708     0.009
      P     2      Pz                   0.658     0.463     0.196
      P     3      S                    0.868     0.866     0.002
      P     3      Px                   0.661     0.659     0.002
      P     3      Py                   0.663     0.659     0.005
      P     3      Pz                   0.650     0.648     0.002
      P     4      S                    0.868     0.866     0.002
      P     4      Px                   0.651     0.648     0.002
      P     4      Py                   0.663     0.659     0.005
      P     4      Pz                   0.661     0.659     0.002
      P     5      S                    0.866     0.866    -0.000
      P     5      Px                   0.659     0.658     0.001
      P     5      Py                   0.647     0.648    -0.000
      P     5      Pz                   0.659     0.658     0.001
      P     6      S                    0.867     0.867    -0.000
      P     6      Px                   0.657     0.657    -0.000
      P     6      Py                   0.658     0.659    -0.000
      P     6      Pz                   0.655     0.655    -0.000
      P     7      S                    0.867     0.867     0.000
      P     7      Px                   0.656     0.656     0.000
      P     7      Py                   0.657     0.657     0.000
      P     7      Pz                   0.658     0.658     0.000
      P     8      S                    0.868     0.866     0.002
      P     8      Px                   0.650     0.648     0.002
      P     8      Py                   0.663     0.659     0.005
      P     8      Pz                   0.661     0.659     0.002
      P     9      S                    0.866     0.866    -0.000
      P     9      Px                   0.656     0.656     0.000
      P     9      Py                   0.659     0.659    -0.000
      P     9      Pz                   0.656     0.656     0.000
      P    10      S                    0.867     0.867    -0.000
      P    10      Px                   0.657     0.657    -0.000
      P    10      Py                   0.657     0.657    -0.000
      P    10      Pz                   0.657     0.657    -0.000
      P    11      S                    0.873     0.867     0.005
      P    11      Px                   0.655     0.646     0.008
      P    11      Py                   0.660     0.644     0.017
      P    11      Pz                   0.651     0.645     0.006
      P    12      S                    0.873     0.867     0.005
      P    12      Px                   0.651     0.645     0.006
      P    12      Py                   0.660     0.644     0.017
      P    12      Pz                   0.655     0.646     0.008
      P    13      S                    0.867     0.867    -0.000
      P    13      Px                   0.657     0.658    -0.000
      P    13      Py                   0.656     0.656    -0.000
      P    13      Pz                   0.657     0.658    -0.000
      P    14      S                    0.864     0.864     0.001
      P    14      Px                   0.654     0.653     0.001
      P    14      Py                   0.662     0.659     0.003
      P    14      Pz                   0.663     0.660     0.003
      P    15      S                    0.867     0.867    -0.000
      P    15      Px                   0.658     0.658    -0.000
      P    15      Py                   0.656     0.656    -0.000
      P    15      Pz                   0.656     0.656    -0.000
      P    16      S                    0.873     0.867     0.005
      P    16      Px                   0.651     0.645     0.006
      P    16      Py                   0.660     0.644     0.017
      P    16      Pz                   0.655     0.646     0.008
      P    17      S                    0.866     0.866    -0.000
      P    17      Px                   0.659     0.658     0.001
      P    17      Py                   0.647     0.648    -0.000
      P    17      Pz                   0.659     0.658     0.001
      P    18      S                    0.867     0.867    -0.000
      P    18      Px                   0.655     0.655    -0.000
      P    18      Py                   0.658     0.659    -0.000
      P    18      Pz                   0.657     0.657    -0.000
      P    19      S                    0.868     0.866     0.002
      P    19      Px                   0.661     0.659     0.002
      P    19      Py                   0.663     0.659     0.005
      P    19      Pz                   0.651     0.648     0.002
      P    20      S                    0.867     0.867     0.000
      P    20      Px                   0.658     0.658     0.000
      P    20      Py                   0.657     0.657     0.000
      P    20      Pz                   0.656     0.656     0.000
      P    21      S                    0.868     0.868    -0.000
      P    21      Px                   0.658     0.658    -0.001
      P    21      Py                   0.653     0.654    -0.001
      P    21      Pz                   0.658     0.658    -0.001
      P    22      S                    0.864     0.864    -0.000
      P    22      Px                   0.661     0.662    -0.001
      P    22      Py                   0.653     0.653    -0.001
      P    22      Pz                   0.661     0.662    -0.001
      P    23      S                    0.867     0.867     0.000
      P    23      Px                   0.656     0.656     0.000
      P    23      Py                   0.657     0.657     0.000
      P    23      Pz                   0.658     0.658     0.000
      P    24      S                    0.867     0.867     0.000
      P    24      Px                   0.658     0.658     0.000
      P    24      Py                   0.657     0.657     0.000
      P    24      Pz                   0.656     0.656     0.000
      P    25      S                    0.867     0.867    -0.000
      P    25      Px                   0.657     0.657    -0.000
      P    25      Py                   0.656     0.656    -0.000
      P    25      Pz                   0.657     0.657    -0.000
      P    26      S                    0.864     0.864     0.001
      P    26      Px                   0.663     0.660     0.003
      P    26      Py                   0.662     0.659     0.003
      P    26      Pz                   0.654     0.653     0.001
      P    27      S                    0.873     0.867     0.005
      P    27      Px                   0.655     0.646     0.008
      P    27      Py                   0.660     0.644     0.017
      P    27      Pz                   0.651     0.645     0.006
      P    28      S                    0.867     0.867    -0.000
      P    28      Px                   0.656     0.656    -0.000
      P    28      Py                   0.656     0.656    -0.000
      P    28      Pz                   0.658     0.658    -0.000
      P    29      S                    0.866     0.866    -0.000
      P    29      Px                   0.656     0.656     0.000
      P    29      Py                   0.659     0.659    -0.000
      P    29      Pz                   0.656     0.656     0.000
      P    30      S                    0.867     0.867    -0.000
      P    30      Px                   0.657     0.657     0.000
      P    30      Py                   0.656     0.657    -0.000
      P    30      Pz                   0.657     0.657     0.000
      P    31      S                    0.867     0.867    -0.000
      P    31      Px                   0.658     0.658    -0.000
      P    31      Py                   0.656     0.656    -0.000
      P    31      Pz                   0.656     0.656    -0.000
      P    32      S                    0.867     0.867    -0.000
      P    32      Px                   0.656     0.656    -0.000
      P    32      Py                   0.656     0.656    -0.000
      P    32      Pz                   0.658     0.658    -0.000
      P    33      S                    0.897     0.888     0.009
      P    33      Px                   0.658     0.462     0.196
      P    33      Py                   0.718     0.709     0.009
      P    33      Pz                   0.658     0.462     0.196
     In     1      Dzz                  1.000     1.000     0.000
     In     1      Dzy                  0.998     0.998     0.000
     In     1      Dzx                  0.999     0.999     0.000
     In     1      Dxx-yy               1.000     1.000     0.000
     In     1      Dxy                  0.999     0.999     0.000
     In     1      S                    0.705     0.705    -0.001
     In     1      Px                   0.232     0.233    -0.000
     In     1      Py                   0.240     0.241    -0.001
     In     1      Pz                   0.241     0.240     0.001
     In     1      S                   -0.255    -0.255     0.001
     In     2      Dzz                  0.999     0.999     0.000
     In     2      Dzy                  0.999     0.998     0.001
     In     2      Dzx                  0.999     0.999     0.000
     In     2      Dxx-yy               1.000     0.999     0.000
     In     2      Dxy                  0.999     0.998     0.001
     In     2      S                    0.688     0.702    -0.013
     In     2      Px                   0.234     0.238    -0.005
     In     2      Py                   0.233     0.240    -0.007
     In     2      Pz                   0.234     0.239    -0.005
     In     2      S                   -0.267    -0.263    -0.004
     In     3      Dzz                  1.000     1.000     0.000
     In     3      Dzy                  0.998     0.998     0.000
     In     3      Dzx                  0.999     0.999    -0.000
     In     3      Dxx-yy               1.000     1.000     0.000
     In     3      Dxy                  0.998     0.998    -0.000
     In     3      S                    0.712     0.712    -0.000
     In     3      Px                   0.239     0.239     0.000
     In     3      Py                   0.240     0.240    -0.000
     In     3      Pz                   0.240     0.239     0.000
     In     3      S                   -0.267    -0.270     0.003
     In     4      Dzz                  0.999     0.999     0.000
     In     4      Dzy                  0.998     0.998     0.000
     In     4      Dzx                  0.998     0.998     0.000
     In     4      Dxx-yy               0.999     0.999     0.000
     In     4      Dxy                  0.998     0.998     0.000
     In     4      S                    0.712     0.721    -0.009
     In     4      Px                   0.246     0.246    -0.000
     In     4      Py                   0.245     0.252    -0.007
     In     4      Pz                   0.246     0.246    -0.000
     In     4      S                   -0.265    -0.267     0.001
     In     5      Dzz                  1.000     1.000     0.000
     In     5      Dzy                  0.998     0.998    -0.000
     In     5      Dzx                  0.998     0.998    -0.000
     In     5      Dxx-yy               1.000     1.000    -0.000
     In     5      Dxy                  0.998     0.998     0.000
     In     5      S                    0.708     0.707     0.001
     In     5      Px                   0.241     0.240     0.000
     In     5      Py                   0.240     0.240    -0.001
     In     5      Pz                   0.241     0.240     0.000
     In     5      S                   -0.265    -0.267     0.001
     In     6      Dzz                  1.000     1.000     0.000
     In     6      Dzy                  0.999     0.999     0.000
     In     6      Dzx                  0.999     0.999     0.000
     In     6      Dxx-yy               1.000     1.000     0.000
     In     6      Dxy                  0.998     0.998     0.000
     In     6      S                    0.705     0.705    -0.001
     In     6      Px                   0.241     0.240     0.001
     In     6      Py                   0.240     0.241    -0.001
     In     6      Pz                   0.232     0.233    -0.000
     In     6      S                   -0.255    -0.255     0.001
     In     7      Dzz                  0.999     0.999    -0.000
     In     7      Dzy                  0.998     0.998    -0.000
     In     7      Dzx                  0.998     0.998    -0.000
     In     7      Dxx-yy               1.000     1.000     0.000
     In     7      Dxy                  0.998     0.998     0.000
     In     7      S                    0.710     0.710    -0.001
     In     7      Px                   0.241     0.241    -0.000
     In     7      Py                   0.250     0.251    -0.001
     In     7      Pz                   0.241     0.241    -0.000
     In     7      S                   -0.266    -0.266     0.000
     In     8      Dzz                  1.000     1.000     0.000
     In     8      Dzy                  0.998     0.998    -0.000
     In     8      Dzx                  0.999     0.999    -0.000
     In     8      Dxx-yy               1.000     1.000    -0.000
     In     8      Dxy                  0.998     0.998     0.000
     In     8      S                    0.712     0.712    -0.000
     In     8      Px                   0.240     0.239     0.000
     In     8      Py                   0.240     0.240    -0.000
     In     8      Pz                   0.239     0.239     0.000
     In     8      S                   -0.267    -0.270     0.003
     In     9      Dzz                  1.000     1.000     0.000
     In     9      Dzy                  0.998     0.998    -0.000
     In     9      Dzx                  0.998     0.998     0.000
     In     9      Dxx-yy               1.000     1.000     0.000
     In     9      Dxy                  0.998     0.998    -0.000
     In     9      S                    0.708     0.707     0.001
     In     9      Px                   0.240     0.239     0.000
     In     9      Py                   0.238     0.239    -0.000
     In     9      Pz                   0.247     0.245     0.002
     In     9      S                   -0.265    -0.265    -0.001
     In    10      Dzz                  1.000     1.000     0.000
     In    10      Dzy                  0.998     0.998    -0.000
     In    10      Dzx                  0.998     0.998    -0.000
     In    10      Dxx-yy               1.000     1.000     0.000
     In    10      Dxy                  0.998     0.998    -0.000
     In    10      S                    0.712     0.713    -0.000
     In    10      Px                   0.241     0.240     0.001
     In    10      Py                   0.239     0.239    -0.000
     In    10      Pz                   0.241     0.240     0.001
     In    10      S                   -0.270    -0.270     0.000
     In    11      Dzz                  1.000     1.000     0.000
     In    11      Dzy                  0.998     0.998    -0.000
     In    11      Dzx                  0.998     0.998     0.000
     In    11      Dxx-yy               1.000     1.000     0.000
     In    11      Dxy                  0.998     0.998    -0.000
     In    11      S                    0.716     0.715     0.001
     In    11      Px                   0.242     0.241     0.001
     In    11      Py                   0.241     0.241    -0.000
     In    11      Pz                   0.251     0.247     0.004
     In    11      S                   -0.268    -0.269     0.001
     In    12      Dzz                  1.000     1.000     0.000
     In    12      Dzy                  0.999     0.999     0.000
     In    12      Dzx                  0.998     0.998    -0.000
     In    12      Dxx-yy               1.000     1.000     0.000
     In    12      Dxy                  0.999     0.999     0.000
     In    12      S                    0.705     0.706    -0.001
     In    12      Px                   0.243     0.241     0.002
     In    12      Py                   0.233     0.233    -0.001
     In    12      Pz                   0.243     0.241     0.002
     In    12      S                   -0.253    -0.258     0.004
     In    13      Dzz                  1.000     1.000     0.000
     In    13      Dzy                  0.998     0.998    -0.000
     In    13      Dzx                  0.998     0.998    -0.000
     In    13      Dxx-yy               1.000     1.000     0.000
     In    13      Dxy                  0.998     0.998    -0.000
     In    13      S                    0.707     0.707     0.000
     In    13      Px                   0.242     0.242     0.000
     In    13      Py                   0.241     0.241    -0.000
     In    13      Pz                   0.242     0.242     0.000
     In    13      S                   -0.265    -0.266     0.001
     In    14      Dzz                  1.000     1.000     0.000
     In    14      Dzy                  0.998     0.998    -0.000
     In    14      Dzx                  0.998     0.998     0.000
     In    14      Dxx-yy               1.000     1.000     0.000
     In    14      Dxy                  0.998     0.998     0.000
     In    14      S                    0.708     0.707     0.001
     In    14      Px                   0.247     0.245     0.002
     In    14      Py                   0.238     0.239    -0.000
     In    14      Pz                   0.240     0.239     0.000
     In    14      S                   -0.265    -0.265    -0.001
     In    15      Dzz                  1.000     1.000    -0.000
     In    15      Dzy                  0.998     0.998    -0.000
     In    15      Dzx                  0.998     0.998    -0.000
     In    15      Dxx-yy               1.000     1.000    -0.000
     In    15      Dxy                  0.998     0.998    -0.000
     In    15      S                    0.706     0.706    -0.000
     In    15      Px                   0.241     0.241    -0.000
     In    15      Py                   0.242     0.242     0.000
     In    15      Pz                   0.241     0.241    -0.000
     In    15      S                   -0.265    -0.265     0.000
     In    16      Dzz                  1.000     1.000     0.000
     In    16      Dzy                  0.998     0.998    -0.000
     In    16      Dzx                  0.998     0.998     0.000
     In    16      Dxx-yy               1.000     1.000     0.000
     In    16      Dxy                  0.998     0.998    -0.000
     In    16      S                    0.716     0.715     0.001
     In    16      Px                   0.251     0.247     0.004
     In    16      Py                   0.241     0.241    -0.000
     In    16      Pz                   0.242     0.241     0.001
     In    16      S                   -0.268    -0.269     0.001
     In    17      Dzz                  0.999     0.999     0.000
     In    17      Dzy                  0.999     0.998     0.001
     In    17      Dzx                  0.999     0.999     0.000
     In    17      Dxx-yy               1.000     0.999     0.000
     In    17      Dxy                  0.999     0.998     0.001
     In    17      S                    0.688     0.702    -0.013
     In    17      Px                   0.234     0.239    -0.005
     In    17      Py                   0.233     0.240    -0.007
     In    17      Pz                   0.234     0.238    -0.005
     In    17      S                   -0.267    -0.263    -0.004
     In    18      Dzz                  1.000     1.000     0.000
     In    18      Dzy                  0.998     0.998     0.000
     In    18      Dzx                  0.999     0.999     0.000
     In    18      Dxx-yy               1.000     1.000     0.000
     In    18      Dxy                  0.999     0.999     0.000
     In    18      S                    0.705     0.705    -0.001
     In    18      Px                   0.232     0.233    -0.000
     In    18      Py                   0.240     0.241    -0.001
     In    18      Pz                   0.241     0.240     0.001
     In    18      S                   -0.255    -0.255     0.001
     In    19      Dzz                  0.999     0.999     0.000
     In    19      Dzy                  0.998     0.998     0.000
     In    19      Dzx                  0.998     0.998     0.000
     In    19      Dxx-yy               0.999     0.999     0.000
     In    19      Dxy                  0.998     0.998     0.000
     In    19      S                    0.712     0.721    -0.009
     In    19      Px                   0.246     0.246    -0.000
     In    19      Py                   0.245     0.252    -0.007
     In    19      Pz                   0.246     0.246    -0.000
     In    19      S                   -0.265    -0.267     0.001
     In    20      Dzz                  1.000     1.000    -0.000
     In    20      Dzy                  0.998     0.998    -0.000
     In    20      Dzx                  0.999     0.999    -0.000
     In    20      Dxx-yy               1.000     1.000    -0.000
     In    20      Dxy                  0.998     0.998    -0.000
     In    20      S                    0.712     0.712    -0.000
     In    20      Px                   0.239     0.239     0.000
     In    20      Py                   0.240     0.240    -0.000
     In    20      Pz                   0.240     0.239     0.000
     In    20      S                   -0.267    -0.270     0.003
     In    21      Dzz                  1.000     1.000     0.000
     In    21      Dzy                  0.999     0.999     0.000
     In    21      Dzx                  0.999     0.999     0.000
     In    21      Dxx-yy               1.000     1.000     0.000
     In    21      Dxy                  0.998     0.998     0.000
     In    21      S                    0.705     0.705    -0.001
     In    21      Px                   0.241     0.240     0.001
     In    21      Py                   0.240     0.241    -0.001
     In    21      Pz                   0.232     0.233    -0.000
     In    21      S                   -0.255    -0.255     0.001
     In    22      Dzz                  1.000     1.000     0.000
     In    22      Dzy                  0.998     0.998    -0.000
     In    22      Dzx                  0.998     0.998    -0.000
     In    22      Dxx-yy               1.000     1.000    -0.000
     In    22      Dxy                  0.998     0.998    -0.000
     In    22      S                    0.708     0.707     0.001
     In    22      Px                   0.241     0.240     0.000
     In    22      Py                   0.240     0.240    -0.001
     In    22      Pz                   0.241     0.240     0.000
     In    22      S                   -0.265    -0.267     0.001
     In    23      Dzz                  1.000     1.000     0.000
     In    23      Dzy                  0.998     0.998    -0.000
     In    23      Dzx                  0.999     0.999    -0.000
     In    23      Dxx-yy               1.000     1.000    -0.000
     In    23      Dxy                  0.998     0.998     0.000
     In    23      S                    0.712     0.712    -0.000
     In    23      Px                   0.240     0.239     0.000
     In    23      Py                   0.240     0.240    -0.000
     In    23      Pz                   0.239     0.239     0.000
     In    23      S                   -0.267    -0.270     0.003
     In    24      Dzz                  0.999     0.999     0.000
     In    24      Dzy                  0.998     0.998    -0.000
     In    24      Dzx                  0.998     0.998    -0.000
     In    24      Dxx-yy               1.000     1.000    -0.000
     In    24      Dxy                  0.998     0.998     0.000
     In    24      S                    0.710     0.710    -0.001
     In    24      Px                   0.241     0.241    -0.000
     In    24      Py                   0.250     0.251    -0.001
     In    24      Pz                   0.241     0.241    -0.000
     In    24      S                   -0.266    -0.266     0.000
     In    25      Dzz                  1.000     1.000     0.000
     In    25      Dzy                  0.998     0.998    -0.000
     In    25      Dzx                  0.998     0.998    -0.000
     In    25      Dxx-yy               1.000     1.000     0.000
     In    25      Dxy                  0.998     0.998    -0.000
     In    25      S                    0.712     0.713    -0.000
     In    25      Px                   0.241     0.240     0.001
     In    25      Py                   0.239     0.239    -0.000
     In    25      Pz                   0.241     0.240     0.001
     In    25      S                   -0.270    -0.270     0.000
     In    26      Dzz                  1.000     1.000     0.000
     In    26      Dzy                  0.998     0.998    -0.000
     In    26      Dzx                  0.998     0.998     0.000
     In    26      Dxx-yy               1.000     1.000     0.000
     In    26      Dxy                  0.998     0.998    -0.000
     In    26      S                    0.708     0.707     0.001
     In    26      Px                   0.240     0.239     0.000
     In    26      Py                   0.239     0.239    -0.000
     In    26      Pz                   0.247     0.245     0.002
     In    26      S                   -0.265    -0.265    -0.001
     In    27      Dzz                  1.000     1.000     0.000
     In    27      Dzy                  0.999     0.999     0.000
     In    27      Dzx                  0.998     0.998    -0.000
     In    27      Dxx-yy               1.000     1.000     0.000
     In    27      Dxy                  0.999     0.999     0.000
     In    27      S                    0.705     0.706    -0.001
     In    27      Px                   0.243     0.241     0.002
     In    27      Py                   0.233     0.233    -0.001
     In    27      Pz                   0.243     0.241     0.002
     In    27      S                   -0.253    -0.258     0.004
     In    28      Dzz                  1.000     1.000     0.000
     In    28      Dzy                  0.998     0.998    -0.000
     In    28      Dzx                  0.998     0.998     0.000
     In    28      Dxx-yy               1.000     1.000     0.000
     In    28      Dxy                  0.998     0.998    -0.000
     In    28      S                    0.716     0.715     0.001
     In    28      Px                   0.242     0.241     0.001
     In    28      Py                   0.241     0.241    -0.000
     In    28      Pz                   0.251     0.247     0.004
     In    28      S                   -0.268    -0.269     0.001
     In    29      Dzz                  1.000     1.000     0.000
     In    29      Dzy                  0.998     0.998    -0.000
     In    29      Dzx                  0.998     0.998     0.000
     In    29      Dxx-yy               1.000     1.000     0.000
     In    29      Dxy                  0.998     0.998    -0.000
     In    29      S                    0.708     0.707     0.001
     In    29      Px                   0.247     0.245     0.002
     In    29      Py                   0.239     0.239    -0.000
     In    29      Pz                   0.240     0.239     0.000
     In    29      S                   -0.265    -0.265    -0.001
     In    30      Dzz                  1.000     1.000     0.000
     In    30      Dzy                  0.998     0.998    -0.000
     In    30      Dzx                  0.998     0.998     0.000
     In    30      Dxx-yy               1.000     1.000     0.000
     In    30      Dxy                  0.998     0.998    -0.000
     In    30      S                    0.707     0.707     0.000
     In    30      Px                   0.242     0.242     0.000
     In    30      Py                   0.241     0.241    -0.000
     In    30      Pz                   0.242     0.242     0.000
     In    30      S                   -0.265    -0.266     0.001
     In    31      Dzz                  1.000     1.000     0.000
     In    31      Dzy                  0.998     0.998    -0.000
     In    31      Dzx                  0.998     0.998     0.000
     In    31      Dxx-yy               1.000     1.000     0.000
     In    31      Dxy                  0.998     0.998    -0.000
     In    31      S                    0.716     0.715     0.001
     In    31      Px                   0.251     0.247     0.004
     In    31      Py                   0.241     0.241    -0.000
     In    31      Pz                   0.242     0.241     0.001
     In    31      S                   -0.268    -0.269     0.001
     In    32      Dzz                  1.000     1.000     0.000
     In    32      Dzy                  0.998     0.998    -0.000
     In    32      Dzx                  0.998     0.998    -0.000
     In    32      Dxx-yy               1.000     1.000     0.000
     In    32      Dxy                  0.998     0.998     0.000
     In    32      S                    0.706     0.706    -0.000
     In    32      Px                   0.241     0.241    -0.000
     In    32      Py                   0.242     0.242     0.000
     In    32      Pz                   0.241     0.241    -0.000
     In    32      S                   -0.265    -0.265     0.000
  ---------------------------------------------------------------
                           Total:     290.996   290.003     0.993
  ---------------------------------------------------------------

     Atomic Populations (Mulliken)
     -----------------------------
Species          Ion Spin      s       p       d       f      Total   Charge(e)   Spin(hbar/2)
==============================================================================================
  P               1   up:     0.868   1.968   0.000   0.000   2.836    -0.674       -0.002
                  1   dn:     0.868   1.970   0.000   0.000   2.838
  P               2   up:     0.897   2.034   0.000   0.000   2.932    -0.454        0.410
                  2   dn:     0.889   1.634   0.000   0.000   2.522
  P               3   up:     0.868   1.975   0.000   0.000   2.843    -0.675        0.011
                  3   dn:     0.866   1.966   0.000   0.000   2.832
  P               4   up:     0.868   1.975   0.000   0.000   2.843    -0.675        0.011
                  4   dn:     0.866   1.966   0.000   0.000   2.832
  P               5   up:     0.866   1.966   0.000   0.000   2.832    -0.662        0.002
                  5   dn:     0.866   1.964   0.000   0.000   2.830
  P               6   up:     0.867   1.970   0.000   0.000   2.838    -0.676       -0.000
                  6   dn:     0.867   1.971   0.000   0.000   2.838
  P               7   up:     0.867   1.971   0.000   0.000   2.838    -0.675        0.000
                  7   dn:     0.867   1.971   0.000   0.000   2.837
  P               8   up:     0.868   1.975   0.000   0.000   2.843    -0.675        0.011
                  8   dn:     0.866   1.966   0.000   0.000   2.832
  P               9   up:     0.866   1.972   0.000   0.000   2.838    -0.675        0.001
                  9   dn:     0.866   1.971   0.000   0.000   2.837
  P              10   up:     0.867   1.971   0.000   0.000   2.838    -0.677       -0.001
                 10   dn:     0.867   1.972   0.000   0.000   2.839
  P              11   up:     0.873   1.966   0.000   0.000   2.839    -0.642        0.036
                 11   dn:     0.867   1.935   0.000   0.000   2.803
  P              12   up:     0.873   1.966   0.000   0.000   2.839    -0.642        0.036
                 12   dn:     0.867   1.935   0.000   0.000   2.803
  P              13   up:     0.867   1.970   0.000   0.000   2.837    -0.674       -0.001
                 13   dn:     0.867   1.971   0.000   0.000   2.838
  P              14   up:     0.864   1.979   0.000   0.000   2.843    -0.679        0.008
                 14   dn:     0.864   1.972   0.000   0.000   2.836
  P              15   up:     0.867   1.970   0.000   0.000   2.837    -0.674       -0.000
                 15   dn:     0.867   1.970   0.000   0.000   2.837
  P              16   up:     0.873   1.966   0.000   0.000   2.839    -0.642        0.036
                 16   dn:     0.867   1.935   0.000   0.000   2.803
  P              17   up:     0.866   1.966   0.000   0.000   2.832    -0.662        0.002
                 17   dn:     0.866   1.964   0.000   0.000   2.830
  P              18   up:     0.867   1.970   0.000   0.000   2.838    -0.676       -0.000
                 18   dn:     0.867   1.971   0.000   0.000   2.838
  P              19   up:     0.868   1.975   0.000   0.000   2.843    -0.675        0.011
                 19   dn:     0.866   1.966   0.000   0.000   2.832
  P              20   up:     0.867   1.971   0.000   0.000   2.838    -0.675        0.000
                 20   dn:     0.867   1.971   0.000   0.000   2.837
  P              21   up:     0.868   1.968   0.000   0.000   2.836    -0.674       -0.002
                 21   dn:     0.868   1.970   0.000   0.000   2.838
  P              22   up:     0.864   1.975   0.000   0.000   2.839    -0.680       -0.002
                 22   dn:     0.864   1.977   0.000   0.000   2.841
  P              23   up:     0.867   1.971   0.000   0.000   2.838    -0.675        0.000
                 23   dn:     0.867   1.971   0.000   0.000   2.837
  P              24   up:     0.867   1.971   0.000   0.000   2.838    -0.675        0.000
                 24   dn:     0.867   1.971   0.000   0.000   2.837
  P              25   up:     0.867   1.970   0.000   0.000   2.837    -0.674       -0.001
                 25   dn:     0.867   1.971   0.000   0.000   2.838
  P              26   up:     0.864   1.979   0.000   0.000   2.843    -0.679        0.008
                 26   dn:     0.864   1.972   0.000   0.000   2.836
  P              27   up:     0.873   1.966   0.000   0.000   2.839    -0.642        0.036
                 27   dn:     0.867   1.935   0.000   0.000   2.803
  P              28   up:     0.867   1.970   0.000   0.000   2.837    -0.674       -0.000
                 28   dn:     0.867   1.970   0.000   0.000   2.837
  P              29   up:     0.866   1.972   0.000   0.000   2.838    -0.675        0.001
                 29   dn:     0.866   1.971   0.000   0.000   2.837
  P              30   up:     0.867   1.970   0.000   0.000   2.837    -0.675       -0.000
                 30   dn:     0.867   1.970   0.000   0.000   2.837
  P              31   up:     0.867   1.970   0.000   0.000   2.837    -0.674       -0.000
                 31   dn:     0.867   1.970   0.000   0.000   2.837
  P              32   up:     0.867   1.970   0.000   0.000   2.837    -0.674       -0.000
                 32   dn:     0.867   1.970   0.000   0.000   2.837
  P              33   up:     0.897   2.035   0.000   0.000   2.932    -0.454        0.411
                 33   dn:     0.888   1.633   0.000   0.000   2.521
  In              1   up:     0.450   0.714   4.995   0.000   6.159     0.682       -0.000
                  1   dn:     0.450   0.714   4.995   0.000   6.159
  In              2   up:     0.421   0.700   4.995   0.000   6.117     0.734       -0.032
                  2   dn:     0.439   0.717   4.994   0.000   6.149
  In              3   up:     0.444   0.719   4.995   0.000   6.158     0.687        0.003
                  3   dn:     0.441   0.719   4.995   0.000   6.155
  In              4   up:     0.447   0.736   4.993   0.000   6.177     0.632       -0.014
                  4   dn:     0.455   0.744   4.993   0.000   6.191
  In              5   up:     0.442   0.721   4.995   0.000   6.158     0.687        0.002
                  5   dn:     0.440   0.721   4.995   0.000   6.156
  In              6   up:     0.450   0.714   4.995   0.000   6.159     0.682       -0.000
                  6   dn:     0.450   0.714   4.995   0.000   6.159
  In              7   up:     0.443   0.731   4.994   0.000   6.169     0.661       -0.002
                  7   dn:     0.444   0.733   4.994   0.000   6.170
  In              8   up:     0.444   0.719   4.995   0.000   6.158     0.687        0.003
                  8   dn:     0.441   0.719   4.995   0.000   6.155
  In              9   up:     0.443   0.725   4.994   0.000   6.162     0.678        0.001
                  9   dn:     0.443   0.723   4.994   0.000   6.160
  In             10   up:     0.442   0.722   4.995   0.000   6.158     0.685        0.002
                 10   dn:     0.442   0.720   4.995   0.000   6.157
  In             11   up:     0.448   0.734   4.994   0.000   6.176     0.656        0.008
                 11   dn:     0.446   0.728   4.994   0.000   6.168
  In             12   up:     0.452   0.718   4.995   0.000   6.164     0.677        0.005
                 12   dn:     0.449   0.716   4.995   0.000   6.159
  In             13   up:     0.442   0.725   4.994   0.000   6.161     0.678        0.001
                 13   dn:     0.441   0.725   4.994   0.000   6.160
  In             14   up:     0.443   0.725   4.994   0.000   6.162     0.678        0.001
                 14   dn:     0.443   0.723   4.994   0.000   6.160
  In             15   up:     0.441   0.724   4.995   0.000   6.160     0.681       -0.000
                 15   dn:     0.441   0.724   4.995   0.000   6.160
  In             16   up:     0.448   0.734   4.994   0.000   6.176     0.656        0.008
                 16   dn:     0.446   0.728   4.994   0.000   6.168
  In             17   up:     0.421   0.700   4.995   0.000   6.117     0.734       -0.032
                 17   dn:     0.439   0.717   4.994   0.000   6.149
  In             18   up:     0.450   0.714   4.995   0.000   6.159     0.682       -0.000
                 18   dn:     0.450   0.714   4.995   0.000   6.159
  In             19   up:     0.447   0.737   4.993   0.000   6.177     0.632       -0.014
                 19   dn:     0.454   0.744   4.993   0.000   6.191
  In             20   up:     0.444   0.719   4.995   0.000   6.158     0.687        0.003
                 20   dn:     0.441   0.719   4.995   0.000   6.155
  In             21   up:     0.450   0.714   4.995   0.000   6.159     0.682       -0.000
                 21   dn:     0.450   0.714   4.995   0.000   6.159
  In             22   up:     0.442   0.721   4.995   0.000   6.158     0.687        0.002
                 22   dn:     0.440   0.721   4.995   0.000   6.156
  In             23   up:     0.444   0.719   4.995   0.000   6.158     0.687        0.003
                 23   dn:     0.441   0.719   4.995   0.000   6.155
  In             24   up:     0.444   0.731   4.994   0.000   6.169     0.661       -0.002
                 24   dn:     0.444   0.733   4.994   0.000   6.170
  In             25   up:     0.442   0.722   4.995   0.000   6.158     0.685        0.002
                 25   dn:     0.442   0.720   4.995   0.000   6.157
  In             26   up:     0.443   0.725   4.994   0.000   6.162     0.678        0.001
                 26   dn:     0.443   0.723   4.994   0.000   6.160
  In             27   up:     0.452   0.718   4.995   0.000   6.164     0.677        0.006
                 27   dn:     0.449   0.716   4.995   0.000   6.159
  In             28   up:     0.448   0.734   4.994   0.000   6.176     0.656        0.008
                 28   dn:     0.446   0.728   4.994   0.000   6.168
  In             29   up:     0.443   0.725   4.994   0.000   6.162     0.678        0.001
                 29   dn:     0.443   0.723   4.994   0.000   6.160
  In             30   up:     0.442   0.725   4.994   0.000   6.161     0.678        0.001
                 30   dn:     0.441   0.725   4.994   0.000   6.160
  In             31   up:     0.448   0.734   4.994   0.000   6.176     0.656        0.008
                 31   dn:     0.446   0.728   4.994   0.000   6.168
  In             32   up:     0.441   0.724   4.995   0.000   6.160     0.681       -0.000
                 32   dn:     0.441   0.724   4.995   0.000   6.160
==============================================================================================

                 Bond                   Population        Spin       Length (A)
================================================================================
              P 2  -- P 33                   0.35        -0.12          2.14201
              P 33 -- In 4                   0.75        -0.01          2.46933
              P 2  -- In 19                  0.75        -0.01          2.46933
              P 5  -- In 7                   0.69         0.00          2.50514
              P 17 -- In 24                  0.69         0.00          2.50514
              P 22 -- In 7                   0.66         0.00          2.51647
              P 22 -- In 24                  0.66         0.00          2.51647
              P 8  -- In 4                   0.65        -0.00          2.52206
              P 3  -- In 4                   0.65        -0.00          2.52206
              P 4  -- In 19                  0.65        -0.00          2.52207
              P 19 -- In 19                  0.65        -0.00          2.52207
              P 12 -- In 16                  0.63        -0.00          2.53138
              P 27 -- In 28                  0.63        -0.00          2.53139
              P 16 -- In 31                  0.63        -0.00          2.53139
              P 11 -- In 11                  0.63        -0.00          2.53139
              P 14 -- In 16                  0.65        -0.00          2.53273
              P 14 -- In 31                  0.65        -0.00          2.53273
              P 26 -- In 28                  0.65        -0.00          2.53273
              P 26 -- In 11                  0.65        -0.00          2.53273
              P 26 -- In 9                   0.67         0.00          2.53291
              P 14 -- In 14                  0.67         0.00          2.53291
              P 14 -- In 29                  0.67         0.00          2.53291
              P 26 -- In 26                  0.67         0.00          2.53291
              P 1  -- In 2                   0.68         0.00          2.53969
              P 21 -- In 17                  0.68         0.00          2.53969
              P 9  -- In 13                  0.67        -0.00          2.54206
              P 29 -- In 30                  0.67         0.00          2.54206
              P 3  -- In 9                   0.64        -0.00          2.54333
              P 8  -- In 14                  0.64        -0.00          2.54333
              P 4  -- In 29                  0.64        -0.00          2.54334
              P 19 -- In 26                  0.64        -0.00          2.54334
              P 10 -- In 25                  0.66         0.00          2.54372
              P 10 -- In 10                  0.66         0.00          2.54372
              P 20 -- In 13                  0.66        -0.00          2.54602
              P 23 -- In 30                  0.66        -0.00          2.54602
              P 7  -- In 13                  0.66        -0.00          2.54602
              P 24 -- In 30                  0.66        -0.00          2.54602
              P 25 -- In 29                  0.67         0.00          2.54644
              P 25 -- In 26                  0.67         0.00          2.54644
              P 13 -- In 9                   0.67         0.00          2.54644
              P 13 -- In 14                  0.67         0.00          2.54644
              P 32 -- In 28                  0.66         0.00          2.54745
              P 31 -- In 31                  0.66         0.00          2.54745
              P 15 -- In 16                  0.66         0.00          2.54746
              P 28 -- In 11                  0.66         0.00          2.54746
              P 6  -- In 23                  0.66         0.00          2.54767
              P 18 -- In 3                   0.66         0.00          2.54767
              P 6  -- In 8                   0.66         0.00          2.54767
              P 18 -- In 20                  0.66         0.00          2.54767
              P 32 -- In 15                  0.67         0.00          2.54770
              P 31 -- In 32                  0.67         0.00          2.54771
              P 15 -- In 15                  0.67         0.00          2.54771
              P 28 -- In 32                  0.67         0.00          2.54771
              P 16 -- In 17                  0.63        -0.01          2.54899
              P 11 -- In 2                   0.63        -0.01          2.54899
              P 12 -- In 2                   0.63        -0.01          2.54899
              P 27 -- In 17                  0.63        -0.01          2.54899
              P 29 -- In 25                  0.66         0.00          2.54953
              P 9  -- In 10                  0.66        -0.00          2.54953
              P 24 -- In 7                   0.65         0.00          2.55039
              P 7  -- In 7                   0.65         0.00          2.55039
              P 23 -- In 24                  0.65         0.00          2.55039
              P 20 -- In 24                  0.65         0.00          2.55039
              P 11 -- In 12                  0.66        -0.00          2.55125
              P 16 -- In 12                  0.66        -0.00          2.55125
              P 12 -- In 27                  0.66        -0.00          2.55125
              P 27 -- In 27                  0.66        -0.00          2.55125
              P 22 -- In 5                   0.67         0.00          2.55160
              P 22 -- In 22                  0.67         0.00          2.55160
              P 9  -- In 16                  0.65        -0.00          2.55202
              P 29 -- In 28                  0.65        -0.00          2.55202
              P 9  -- In 11                  0.65        -0.00          2.55202
              P 29 -- In 31                  0.65        -0.00          2.55202
              P 28 -- In 5                   0.67         0.00          2.55267
              P 31 -- In 22                  0.67         0.00          2.55268
              P 32 -- In 22                  0.67         0.00          2.55268
              P 15 -- In 5                   0.67         0.00          2.55268
              P 7  -- In 14                  0.66        -0.00          2.55272
              P 24 -- In 9                   0.66        -0.00          2.55272
              P 20 -- In 26                  0.66        -0.00          2.55272
              P 23 -- In 29                  0.66        -0.00          2.55272
              P 30 -- In 15                  0.66         0.00          2.55315
              P 30 -- In 32                  0.66         0.00          2.55315
              P 5  -- In 6                   0.67         0.00          2.55395
              P 17 -- In 18                  0.67         0.00          2.55395
              P 5  -- In 1                   0.67         0.00          2.55395
              P 17 -- In 21                  0.67         0.00          2.55395
              P 21 -- In 20                  0.66         0.00          2.55526
              P 1  -- In 8                   0.66         0.00          2.55526
              P 1  -- In 3                   0.66         0.00          2.55527
              P 21 -- In 23                  0.66         0.00          2.55527
              P 24 -- In 20                  0.66         0.00          2.55528
              P 7  -- In 8                   0.66         0.00          2.55528
              P 23 -- In 23                  0.66         0.00          2.55528
              P 20 -- In 3                   0.66         0.00          2.55528
              P 25 -- In 32                  0.65        -0.00          2.55530
              P 13 -- In 15                  0.65        -0.00          2.55530
              P 8  -- In 25                  0.65        -0.00          2.55579
              P 3  -- In 10                  0.65        -0.00          2.55579
              P 19 -- In 25                  0.65        -0.00          2.55579
              P 4  -- In 10                  0.65        -0.00          2.55579
              P 25 -- In 27                  0.66         0.00          2.55605
              P 13 -- In 12                  0.66         0.00          2.55605
              P 30 -- In 13                  0.66         0.00          2.55607
              P 30 -- In 30                  0.66         0.00          2.55608
              P 10 -- In 27                  0.64         0.00          2.55849
              P 10 -- In 12                  0.64         0.00          2.55849
              P 1  -- In 5                   0.64         0.00          2.55924
              P 21 -- In 22                  0.64         0.00          2.55924
              P 18 -- In 18                  0.65        -0.00          2.56033
              P 6  -- In 6                   0.65        -0.00          2.56033
              P 18 -- In 1                   0.65        -0.00          2.56033
              P 6  -- In 21                  0.65        -0.00          2.56033
              P 4  -- In 8                   0.67         0.00          2.56148
              P 19 -- In 20                  0.67         0.00          2.56148
              P 3  -- In 3                   0.67         0.00          2.56148
              P 8  -- In 23                  0.67         0.00          2.56148
              P 31 -- In 21                  0.64        -0.00          2.56161
              P 28 -- In 18                  0.64        -0.00          2.56161
              P 15 -- In 6                   0.64        -0.00          2.56161
              P 32 -- In 1                   0.64        -0.00          2.56161
              P 27 -- In 18                  0.65         0.01          2.56754
              P 12 -- In 21                  0.65         0.01          2.56754
              P 16 -- In 6                   0.65         0.01          2.56754
              P 11 -- In 1                   0.65         0.01          2.56754
              P 17 -- In 19                  0.53         0.00          2.57491
              P 5  -- In 4                   0.53         0.00          2.57492
              P 2  -- In 2                   0.30        -0.00          2.71705
              P 2  -- In 17                  0.30        -0.00          2.71706
              P 33 -- In 17                  0.30        -0.00          2.71710
              P 33 -- In 2                   0.30        -0.00          2.71711
================================================================================

 Hirshfeld supercell size:           2           2           2
Standard grid dimensions: 240 240 240
Fine grid dimensions:     240 240 240


     Hirshfeld Analysis
     ------------------
Species   Ion     Hirshfeld Charge (e)  Spin (hbar/2)
===================================================
  P        1                -0.23        0.00
  P        2                -0.16        0.31
  P        3                -0.24        0.01
  P        4                -0.24        0.01
  P        5                -0.24        0.00
  P        6                -0.24        0.00
  P        7                -0.24        0.00
  P        8                -0.24        0.01
  P        9                -0.24        0.00
  P       10                -0.24       -0.00
  P       11                -0.23        0.03
  P       12                -0.23        0.03
  P       13                -0.24        0.00
  P       14                -0.24        0.01
  P       15                -0.24        0.00
  P       16                -0.23        0.03
  P       17                -0.24        0.00
  P       18                -0.24        0.00
  P       19                -0.24        0.01
  P       20                -0.24        0.00
  P       21                -0.23        0.00
  P       22                -0.24       -0.00
  P       23                -0.24        0.00
  P       24                -0.24        0.00
  P       25                -0.24        0.00
  P       26                -0.24        0.01
  P       27                -0.23        0.03
  P       28                -0.24        0.00
  P       29                -0.24        0.00
  P       30                -0.24        0.00
  P       31                -0.24        0.00
  P       32                -0.24        0.00
  P       33                -0.16        0.31
  In       1                 0.25        0.00
  In       2                 0.26        0.04
  In       3                 0.25        0.00
  In       4                 0.22        0.02
  In       5                 0.24       -0.00
  In       6                 0.25        0.00
  In       7                 0.23       -0.00
  In       8                 0.25        0.00
  In       9                 0.24        0.00
  In      10                 0.24        0.00
  In      11                 0.23        0.01
  In      12                 0.24        0.00
  In      13                 0.23        0.00
  In      14                 0.24        0.00
  In      15                 0.24        0.00
  In      16                 0.23        0.01
  In      17                 0.26        0.04
  In      18                 0.25        0.00
  In      19                 0.22        0.02
  In      20                 0.25        0.00
  In      21                 0.25        0.00
  In      22                 0.24       -0.00
  In      23                 0.25        0.00
  In      24                 0.23       -0.00
  In      25                 0.24        0.00
  In      26                 0.24        0.00
  In      27                 0.24        0.00
  In      28                 0.23        0.01
  In      29                 0.24        0.00
  In      30                 0.23        0.00
  In      31                 0.23        0.01
  In      32                 0.24        0.00
===================================================

 
 A BibTeX formatted list of references used in this run has been written to 
 P_Interstitial_Migration_Dumbbell_Dumbbell+_Singlepoints_7.bib
 
Initialisation time =     30.85 s
Calculation time    =   7893.78 s
Finalisation time   =    165.16 s
Total time          =   8089.78 s
Peak Memory Use     = 9598884 kB
 
Overall parallel efficiency rating: Terrible (34%)
 
Data was distributed by:-
G-vector (3-way); efficiency rating: Poor (38%)
k-point (36-way); efficiency rating: Very good (81%)
