4
Lattice="4.164622 -4.3e-05 0.0 2.082274 3.60669 0.0 0.0 0.0 6.83921" Properties=species:S:1:pos:R:3:forces:R:3 virial="-0.0027795317821339674 0.0002910974461565908 -8.335389427391366e-06 0.0002910974461565908 -0.003136029976105475 -5.129470416856225e-06 -8.335389427391366e-06 -5.129470416856225e-06 0.009704316844889871" config_type=Accurate_Bulk energy=-3929.949372547 stress="2.7056942060703924e-05 -2.833645143150999e-06 8.113961863648234e-08 -2.833645143150999e-06 3.0527221134695015e-05 4.993207300706606e-08 8.113961863648234e-08 4.993207300706606e-08 -9.44652406202431e-05" pbc="T T T"
P        2.08227576       1.20220725      -0.00008891       0.00006000       0.00003000      -0.00334000
P        4.16461607       2.40444696       3.41951609      -0.00005000      -0.00003000      -0.00334000
In       2.08228826       1.20221446       2.56089431       0.00006000       0.00003000       0.00334000
In       4.16460358       2.40443975       5.98049931      -0.00007000      -0.00003000       0.00334000
4
Lattice="4.16461 -4.17e-05 -0.0 2.0822691 3.6066789 -0.0 -1e-07 -0.0 6.839279" Properties=species:S:1:pos:R:3:forces:R:3 virial="-0.0022806997919314234 0.00026096283815464985 -7.69423601438771e-06 0.00026096283815464985 -0.0026000105865285135 -4.488304341726165e-06 -7.69423601438771e-06 -4.488304341726165e-06 0.008225138299380463" config_type=Accurate_Bulk energy=-3929.949372705 stress="2.2201047960766746e-05 -2.5402942142344863e-06 7.48981095105991e-08 -2.5402942142344863e-06 2.530931950545661e-05 4.369056388118281e-08 7.48981095105991e-08 4.369056388118281e-08 -8.006607906683044e-05" pbc="T T T"
P        2.08227013       1.20220398      -0.00009575       0.00006000       0.00003000      -0.00300000
P        4.16460476       2.40444043       3.41954375      -0.00006000      -0.00003000      -0.00300000
In       2.08228258       1.20221120       2.56092699       0.00006000       0.00003000       0.00300000
In       4.16459223       2.40443322       5.98056649      -0.00006000      -0.00003000       0.00300000
4
Lattice="4.1645345 -3.38e-05 -3e-07 2.0822382 3.6066091 -3e-07 -4e-07 -3e-07 6.8397116" Properties=species:S:1:pos:R:3:forces:R:3 virial="-0.0008713937282068179 0.00015132370850390656 -5.770819392098131e-06 0.00015132370850390656 -0.0010534951401352478 -3.206010773387851e-06 -5.770819392098131e-06 -3.206010773387851e-06 0.001357424961452416" config_type=Accurate_Bulk energy=-3929.949373295 stress="8.482210902075348e-06 -1.4729961537084489e-06 5.617358213294932e-08 -1.4729961537084489e-06 1.0254799493826193e-05 3.1207545629416294e-08 5.617358213294932e-08 3.1207545629416294e-08 -1.3213274819494857e-05" pbc="T T T"
P        2.08223466       1.20218335      -0.00012331       0.00008000       0.00004000      -0.00182000
P        4.16453367       2.40439901       3.41973229      -0.00008000      -0.00004000      -0.00182000
In       2.08224701       1.20219045       2.56111613       0.00008000       0.00004000       0.00182000
In       4.16452103       2.40439169       5.98097173      -0.00008000      -0.00004000       0.00182000
4
Lattice="4.1644948 -2.97e-05 -4e-07 2.0822219 3.6065724 -4e-07 -6e-07 -4e-07 6.8399393" Properties=species:S:1:pos:R:3:forces:R:3 virial="0.0002795677774991991 8.848704884148962e-05 -4.488473491959619e-06 8.848704884148962e-05 0.00017633288718412788 -2.5648419954054962e-06 -4.488473491959619e-06 -2.5648419954054962e-06 -0.002251290061467174" config_type=Accurate_Bulk energy=-3929.949373337 stress="-2.7212979788851005e-06 -8.613282593718895e-07 4.369056388118281e-08 -8.613282593718895e-07 -1.716415009617896e-06 2.496603650353303e-08 4.369056388118281e-08 2.496603650353303e-08 2.1913938540976116e-05" pbc="T T T"
P        2.08221600       1.20217248      -0.00013707       0.00009000       0.00005000      -0.00134000
P        4.16449624       2.40437723       3.41983232      -0.00009000      -0.00005000      -0.00134000
In       2.08222826       1.20217955       2.56121500       0.00008000       0.00005000       0.00134000
In       4.16448352       2.40436987       5.98118439      -0.00009000      -0.00005000       0.00134000
4
Lattice="4.164495 -2.92e-05 -4e-07 2.0822225 3.6065723 -4e-07 -7e-07 -4e-07 6.8399291" Properties=species:S:1:pos:R:3:forces:R:3 virial="0.0003789548211316765 7.502151281286995e-05 -3.847257067326665e-06 7.502151281286995e-05 0.0002923915371168265 -2.564838044884443e-06 -3.847257067326665e-06 -2.564838044884443e-06 -0.002229485470515802" config_type=Accurate_Bulk energy=-3929.949373351 stress="-3.688731893397006e-06 -7.302565677283412e-07 3.744905475529955e-08 -7.302565677283412e-07 -2.8461281614027656e-06 2.496603650353303e-08 3.744905475529955e-08 2.496603650353303e-08 2.1701727230696087e-05" pbc="T T T"
P        2.08221626       1.20217262      -0.00013707       0.00009000       0.00005000      -0.00126000
P        4.16449672       2.40437750       3.41982722      -0.00009000      -0.00005000      -0.00126000
In       2.08222849       1.20217968       2.56121118       0.00008000       0.00004000       0.00126000
In       4.16448397       2.40437013       5.98117547      -0.00008000      -0.00005000       0.00126000
4
Lattice="4.1644987 -1.98e-05 -8e-07 2.0822325 3.6065706 -8e-07 -1.4e-06 -8e-07 6.8397336" Properties=species:S:1:pos:R:3:forces:R:3 virial="0.0019376780413717966 -1.7312146630389975e-05 -0.0 -1.7312146630389975e-05 0.0019652492378572322 -6.411906159403695e-07 -0.0 -6.411906159403695e-07 -0.00022313433434724859" config_type=Accurate_Bulk energy=-3929.949373563 stress="-1.8861840578419205e-05 1.6852074639884795e-07 0.0 1.6852074639884795e-07 -1.9130225470832185e-05 6.241509125883258e-09 0.0 6.241509125883258e-09 2.172045175807374e-06" pbc="T T T"
P        2.08222499       1.20217518      -0.00017837       0.00009000       0.00005000      -0.00080000
P        4.16450342       2.40437882       3.41968790      -0.00008000      -0.00005000      -0.00080000
In       2.08223696       1.20218210       2.56117875       0.00006000       0.00004000       0.00080000
In       4.16449041       2.40437131       5.98104502      -0.00007000      -0.00004000       0.00080000
4
Lattice="4.1645025 -1.01e-05 -1.2e-06 2.0822427 3.6065689 -1.3e-06 -2e-06 -1.3e-06 6.8395332" Properties=species:S:1:pos:R:3:forces:R:3 virial="0.003105833535305622 -0.00011476965376129362 3.205856250315465e-06 -0.00011476965376129362 0.0032533029228201337 1.923513750189279e-06 3.205856250315465e-06 1.923513750189279e-06 0.0014650763063941675" config_type=Accurate_Bulk energy=-3929.949373651 stress="-3.0233870205778503e-05 1.117230133533103e-06 -3.1207545629416294e-08 1.117230133533103e-06 -3.1669417304731655e-05 -1.8724527377649774e-08 -3.1207545629416294e-08 -1.8724527377649774e-08 -1.4261848352643246e-05" pbc="T T T"
P        2.08223174       1.20218146      -0.00022654       0.00009000       0.00005000      -0.00038000
P        4.16450829       2.40438391       3.41953923      -0.00008000      -0.00005000      -0.00038000
In       2.08224349       1.20218818       2.56115129       0.00006000       0.00003000       0.00038000
In       4.16449505       2.40437621       5.98091705      -0.00006000      -0.00004000       0.00038000
4
Lattice="4.1645164 -8.3e-06 -1.3e-06 2.0822513 3.60658 -1.4e-06 -2.2e-06 -1.3e-06 6.8395062" Properties=species:S:1:pos:R:3:forces:R:3 virial="0.0028192362402889234 -0.00013400508851953263 3.847036034053569e-06 -0.00013400508851953263 0.002989146998459623 1.9235180170267844e-06 3.847036034053569e-06 1.9235180170267844e-06 0.0013701860007954128" config_type=Accurate_Bulk energy=-3929.949373666 stress="-2.7443915626508683e-05 1.304475407309601e-06 -3.744905475529955e-08 1.304475407309601e-06 -2.909791554486775e-05 -1.8724527377649774e-08 -3.744905475529955e-08 -1.8724527377649774e-08 -1.3338105002012522e-05" pbc="T T T"
P        2.08223924       1.20218576      -0.00023344       0.00009000       0.00005000      -0.00027000
P        4.16452319       2.40439251       3.41951876      -0.00008000      -0.00005000      -0.00027000
In       2.08225091       1.20219248       2.56114795       0.00005000       0.00003000       0.00027000
In       4.16450988       2.40438481       5.98090015      -0.00005000      -0.00003000       0.00027000
4
Lattice="4.1645714 -1e-06 -1.7e-06 2.0822851 3.606624 -1.7e-06 -2.8e-06 -1.7e-06 6.8393987" Properties=species:S:1:pos:R:3:forces:R:3 virial="0.0026596073219448684 -0.00017568283659905832 6.411782357629867e-06 -0.00017568283659905832 0.0028808138132830987 3.2058911788149334e-06 6.411782357629867e-06 3.2058911788149334e-06 0.001489457041677418" config_type=Accurate_Bulk energy=-3929.949373677 stress="-2.588977985416375e-05 1.7101735004920126e-06 -6.241509125883259e-08 1.7101735004920126e-06 -2.8043100502593477e-05 -3.1207545629416294e-08 -6.241509125883259e-08 -3.1207545629416294e-08 -1.4499025699426809e-05" pbc="T T T"
P        2.08227301       1.20220286      -0.00028155       0.00007000       0.00004000       0.00004000
P        4.16458001       2.40442290       3.41941667      -0.00007000      -0.00004000       0.00004000
In       2.08228029       1.20220943       2.56115534       0.00004000       0.00002000      -0.00004000
In       4.16456647       2.40441505       5.98085355      -0.00004000      -0.00003000      -0.00004000
4
Lattice="4.1646057 3.6e-06 -1.9e-06 2.0823062 3.6066515 -2e-06 -3.1e-06 -1.9e-06 6.8393319" Properties=species:S:1:pos:R:3:forces:R:3 virial="0.0016516841472810583 -0.00021415469922044775 8.335362544508445e-06 -0.00021415469922044775 0.0019184157487053281 4.488272139350702e-06 8.335362544508445e-06 4.488272139350702e-06 0.000811736075488284" config_type=Accurate_Bulk energy=-3929.949373641 stress="-1.6078127508275274e-05 2.084664048045008e-06 -8.113961863648234e-08 2.084664048045008e-06 -1.8674595304642706e-05 -4.369056388118281e-08 -8.113961863648234e-08 -4.369056388118281e-08 -7.901750553368204e-06" pbc="T T T"
P        2.08229356       1.20221716      -0.00030907       0.00006000       0.00004000       0.00053000
P        4.16461263       2.40444420       3.41935558      -0.00006000      -0.00003000       0.00053000
In       2.08230281       1.20222006       2.56115751       0.00001000       0.00001000      -0.00053000
In       4.16459898       2.40443627       5.98082216      -0.00001000      -0.00001000      -0.00053000
4
Lattice="4.1646381 2e-07 -1.8e-06 2.0823194 3.6066814 -1.8e-06 -2.9e-06 -1.8e-06 6.8393841" Properties=species:S:1:pos:R:3:forces:R:3 virial="0.000848303940708576 -0.00015581092788524869 7.053169575052409e-06 -0.00015581092788524869 0.0010425867026395653 3.8471834045740416e-06 7.053169575052409e-06 3.8471834045740416e-06 0.00039305390450064797" config_type=Accurate_Bulk energy=-3929.949373665 stress="-8.25751657354355e-06 1.5166867175896317e-06 -6.865660038471584e-08 1.5166867175896317e-06 -1.0148693838686177e-05 -3.744905475529955e-08 -6.865660038471584e-08 -3.744905475529955e-08 -3.8260450941664375e-06" pbc="T T T"
P        2.08230876       1.20222600      -0.00029529       0.00006000       0.00004000       0.00025000
P        4.16464313       2.40446192       3.41939556      -0.00006000      -0.00004000       0.00025000
In       2.08231808       1.20222893       2.56116348       0.00001000       0.00001000      -0.00025000
In       4.16462955       2.40445403       5.98085433      -0.00002000      -0.00001000      -0.00025000
4
Lattice="4.1646525 -4.5e-06 -1.6e-06 2.0823226 3.6066964 -1.6e-06 -2.6e-06 -1.6e-06 6.8394314" Properties=species:S:1:pos:R:3:forces:R:3 virial="0.0008303630262777673 -8.07920782324314e-05 4.488448790690634e-06 -8.07920782324314e-05 0.0009335973484636518 2.564827880394648e-06 4.488448790690634e-06 2.564827880394648e-06 0.000540537475793172" config_type=Accurate_Bulk energy=-3929.949373671 stress="-8.082754318018819e-06 7.864301498612905e-07 -4.369056388118281e-08 7.864301498612905e-07 -9.087637287286024e-06 -2.496603650353303e-08 -4.369056388118281e-08 -2.496603650353303e-08 -5.261592193119586e-06" pbc="T T T"
P        2.08231462       1.20222943      -0.00028148       0.00004000       0.00003000      -0.00028000
P        4.16465501       2.40446888       3.41943315      -0.00004000      -0.00002000      -0.00028000
In       2.08232406       1.20223244       2.56116765       0.00005000       0.00003000       0.00028000
In       4.16464571       2.40446107       5.98088228      -0.00005000      -0.00003000       0.00028000
4
Lattice="4.1647015 -6.8e-06 -1.5e-06 2.0823451 3.6067403 -1.6e-06 -2.4e-06 -1.5e-06 6.8394438" Properties=species:S:1:pos:R:3:forces:R:3 virial="-0.0011740805691934893 -2.629017112885476e-05 3.206118430348142e-06 -2.629017112885476e-05 -0.0011413781612039382 1.923671058208885e-06 3.206118430348142e-06 1.923671058208885e-06 -0.0003956350143049607" config_type=Accurate_Bulk energy=-3929.949373624 stress="1.1428203209492244e-05 2.559018741612136e-07 -3.1207545629416294e-08 2.559018741612136e-07 1.1109886244072198e-05 -1.8724527377649774e-08 -3.1207545629416294e-08 -1.8724527377649774e-08 3.8510111306699704e-06" pbc="T T T"
P        2.08233846       1.20224330      -0.00028829       0.00003000       0.00002000      -0.00009000
P        4.16470278       2.40449667       3.41943258      -0.00003000      -0.00002000      -0.00009000
In       2.08234797       1.20224634       2.56117917       0.00000000       0.00000000       0.00009000
In       4.16468939       2.40448889       5.98090003      -0.00001000      -0.00000000       0.00009000
4
Lattice="4.1646767 -5.6e-06 -1.5e-06 2.0823337 3.6067181 -1.6e-06 -2.5e-06 -1.6e-06 6.8394375" Properties=species:S:1:pos:R:3:forces:R:3 virial="-0.0016556177073308869 -6.668638325422627e-05 4.488506565188307e-06 -6.668638325422627e-05 -0.0015716185130395055 2.564860894393318e-06 4.488506565188307e-06 2.564860894393318e-06 -0.0014856956730773295" config_type=Accurate_Bulk energy=-3929.949373644 stress="1.6115576563030572e-05 6.491169490918587e-07 -4.369056388118281e-08 6.491169490918587e-07 1.5297938867539864e-05 -2.496603650353303e-08 -4.369056388118281e-08 -2.496603650353303e-08 1.446157664467151e-05" pbc="T T T"
P        2.08232639       1.20223630      -0.00028145       0.00003000       0.00002000      -0.00019000
P        4.16467860       2.40448262       3.41943627      -0.00003000      -0.00002000      -0.00019000
In       2.08233586       1.20223931       2.56116997       0.00003000       0.00002000       0.00019000
In       4.16466933       2.40447480       5.98088768      -0.00003000      -0.00002000       0.00019000
4
Lattice="4.1646421 -4e-06 -1.6e-06 2.0823179 3.6066871 -1.7e-06 -2.6e-06 -1.6e-06 6.8394288" Properties=species:S:1:pos:R:3:forces:R:3 virial="-0.001088763419561127 -0.00010836337921426996 5.129627418426981e-06 -0.00010836337921426996 -0.0009509046826909017 3.2060171365168635e-06 5.129627418426981e-06 3.2060171365168635e-06 -0.0014702794588066334" config_type=Accurate_Bulk energy=-3929.949373679 stress="1.0598082495749773e-05 1.0548150422742705e-06 -4.993207300706606e-08 1.0548150422742705e-06 9.256158033684872e-06 -3.1207545629416294e-08 -4.993207300706606e-08 -3.1207545629416294e-08 1.431178042565031e-05" pbc="T T T"
P        2.08230959       1.20222650      -0.00028152       0.00004000       0.00003000      -0.00019000
P        4.16464495       2.40446302       3.41943178      -0.00004000      -0.00002000      -0.00019000
In       2.08231903       1.20222951       2.56116664       0.00005000       0.00003000       0.00019000
In       4.16463564       2.40445520       5.98087994      -0.00005000      -0.00003000       0.00019000
4
Lattice="4.1645777 -1.04e-05 -1.3e-06 2.0822801 3.6066351 -1.3e-06 -2.1e-06 -1.4e-06 6.839286" Properties=species:S:1:pos:R:3:forces:R:3 virial="0.0017837389715918705 6.411714491703345e-06 1.2823428983406688e-06 6.411714491703345e-06 0.0017754037427526559 6.411714491703344e-07 1.2823428983406688e-06 6.411714491703344e-07 0.0020023784357589545" config_type=Accurate_Bulk energy=-3929.949373672 stress="-1.7363878388207226e-05 -6.241509125883259e-08 -1.2483018251766515e-08 -6.241509125883259e-08 -1.728273876957074e-05 -6.241509125883258e-09 -1.2483018251766515e-08 -6.241509125883258e-09 -1.9492233000133414e-05" pbc="T T T"
P        2.08227552       1.20220703      -0.00028128       0.00002000       0.00001000      -0.00014000
P        4.16457706       2.40442418       3.41936086      -0.00002000      -0.00001000      -0.00014000
In       2.08228515       1.20221011       2.56111340       0.00001000       0.00001000       0.00014000
In       4.16456795       2.40441644       5.98075553      -0.00002000      -0.00001000       0.00014000
4
Lattice="4.1646166 -6.5e-06 -1.5e-06 2.0823029 3.6066665 -1.5e-06 -2.4e-06 -1.5e-06 6.8393723" Properties=species:S:1:pos:R:3:forces:R:3 virial="0.001384330860129309 -8.143122706642994e-05 4.488335350118186e-06 -8.143122706642994e-05 0.0014862801916534223 2.5647630572103917e-06 4.488335350118186e-06 2.5647630572103917e-06 0.0012233919782893567" config_type=Accurate_Bulk energy=-3929.949373687 stress="-1.3475418202781953e-05 7.926716589871738e-07 -4.369056388118281e-08 7.926716589871738e-07 -1.4467818153797393e-05 -2.496603650353303e-08 -4.369056388118281e-08 -2.496603650353303e-08 -1.1908799412185256e-05" pbc="T T T"
P        2.08229609       1.20221880      -0.00028141       0.00003000       0.00002000      -0.00014000
P        4.16461805       2.40444767       3.41940374      -0.00003000      -0.00002000      -0.00014000
In       2.08230560       1.20222184       2.56114558       0.00003000       0.00002000       0.00014000
In       4.16460882       2.40443989       5.98083073      -0.00003000      -0.00002000       0.00014000
4
Lattice="4.16464 -4.2e-06 -1.6e-06 2.0823166 3.6066854 -1.6e-06 -2.6e-06 -1.6e-06 6.8394242" Properties=species:S:1:pos:R:3:forces:R:3 virial="0.001587617113368326 -0.00010900440600671058 5.129619106198144e-06 -0.00010900440600671058 0.0017248344244591262 3.206011941373841e-06 5.129619106198144e-06 3.206011941373841e-06 0.0012933052171502073" config_type=Accurate_Bulk energy=-3929.94937368 stress="-1.5453976595686948e-05 1.061056551400154e-06 -4.993207300706606e-08 1.061056551400154e-06 -1.6789659548625965e-05 -3.1207545629416294e-08 -4.993207300706606e-08 -3.1207545629416294e-08 -1.2589123906906532e-05" pbc="T T T"
P        2.08230846       1.20222586      -0.00028148       0.00004000       0.00003000      -0.00012000
P        4.16464268       2.40446175       3.41942955      -0.00004000      -0.00002000      -0.00012000
In       2.08231789       1.20222887       2.56116495       0.00003000       0.00002000       0.00012000
In       4.16463338       2.40445394       5.98087599      -0.00004000      -0.00002000       0.00012000
4
Lattice="4.1646336 -1.1e-05 -1.2e-06 2.0823075 3.6066839 -1.3e-06 -2e-06 -1.3e-06 6.83938" Properties=species:S:1:pos:R:3:forces:R:3 virial="0.001311890283262108 2.8853891860603547e-05 0.0 2.8853891860603547e-05 0.0012753420202386767 0.0 0.0 0.0 0.0015292562686119878" config_type=Accurate_Bulk energy=-3929.949373692 stress="-1.2770127671557147e-05 -2.8086791066474663e-07 -0.0 -2.8086791066474663e-07 -1.24143616513818e-05 -0.0 -0.0 -0.0 -1.4885999265231569e-05" pbc="T T T"
P        2.08230329       1.20222310      -0.00028125       0.00002000       0.00001000      -0.00014000
P        4.16463265       2.40445637       3.41940792      -0.00002000      -0.00001000      -0.00014000
In       2.08231295       1.20222622       2.56114863       0.00002000       0.00001000       0.00014000
In       4.16462357       2.40444867       5.98083780      -0.00002000      -0.00001000       0.00014000
4
Lattice="4.1648128 -5.84e-05 1.2e-06 2.082356 3.6068673 1.1e-06 2e-06 9e-07 6.8394614" Properties=species:S:1:pos:R:3:forces:R:3 virial="-0.004958296847177028 0.0008221076769375259 -2.6933324829466525e-05 0.0008221076769375259 -0.00599522985311149 -1.4749201692326906e-05 -2.6933324829466525e-05 -1.4749201692326906e-05 -0.002031542215708332" config_type=Accurate_Bulk energy=-3929.949373291 stress="4.825934856132935e-05 -8.001614699382336e-06 2.621433832870968e-07 -8.001614699382336e-06 5.835186881788258e-05 1.4355470989531493e-07 2.621433832870968e-07 1.4355470989531493e-07 1.977310091079816e-05" pbc="T T T"
P        2.08237919       1.20226843      -0.00028649      -0.00017000      -0.00010000      -0.00047000
P        4.16478645       2.40454813       3.41944498       0.00015000       0.00010000      -0.00047000
In       2.08239035       1.20227237       2.56118072      -0.00014000      -0.00009000       0.00047000
In       4.16477470       2.40454126       5.98091218       0.00015000       0.00009000       0.00047000
4
Lattice="4.1646694 -2.05e-05 -7e-07 2.0823172 3.6067205 -8e-07 -1.2e-06 -9e-07 6.8393963" Properties=species:S:1:pos:R:3:forces:R:3 virial="-0.001039404632856231 0.0002019817762798968 -5.129695905521189e-06 0.0002019817762798968 -0.0012939657921677199 -2.5648479527605944e-06 -5.129695905521189e-06 -2.5648479527605944e-06 -0.0001968520803743756" config_type=Accurate_Bulk energy=-3929.949373652 stress="1.0117486293056762e-05 -1.9660753746532262e-06 4.993207300706606e-08 -1.9660753746532262e-06 1.2595365416032413e-05 2.496603650353303e-08 4.993207300706606e-08 2.496603650353303e-08 1.91614330164616e-06" pbc="T T T"
P        2.08231846       1.20223213      -0.00028092      -0.00002000      -0.00001000      -0.00024000
P        4.16466338       2.40447463       3.41941673       0.00002000       0.00001000      -0.00024000
In       2.08232842       1.20223540       2.56115507      -0.00001000      -0.00001000       0.00024000
In       4.16465460       2.40446708       5.98085272       0.00001000       0.00001000       0.00024000
4
Lattice="4.1646445 -1.03e-05 -1.1e-06 2.0823136 3.6066929 -1.2e-06 -1.8e-06 -1.2e-06 6.8394192" Properties=species:S:1:pos:R:3:forces:R:3 virial="-0.0006848063931281926 -7.694453855372951e-06 -0.0 -7.694453855372951e-06 -0.0006751883258089763 -0.0 -0.0 -0.0 -0.0008572904003861364" config_type=Accurate_Bulk energy=-3929.949373671 stress="6.665931746443319e-06 7.48981095105991e-08 0.0 7.48981095105991e-08 6.57230910955507e-06 0.0 0.0 0.0 8.344897701305916e-06" pbc="T T T"
P        2.08230896       1.20222633      -0.00028118       0.00001000       0.00000000      -0.00015000
P        4.16464408       2.40446288       3.41942765      -0.00001000      -0.00000000      -0.00015000
In       2.08231869       1.20222949       2.56116338       0.00001000       0.00000000       0.00015000
In       4.16463508       2.40445522       5.98087221      -0.00001000      -0.00000000       0.00015000
4
Lattice="4.1646278 -3.5e-06 -1.3e-06 2.0823111 3.6066744 -1.4e-06 -2.2e-06 -1.4e-06 6.8394346" Properties=species:S:1:pos:R:3:forces:R:3 virial="0.000691854225011887 -0.00017376505558685943 3.847196802661095e-06 -0.00017376505558685943 0.0009111444427635694 1.9235984013305475e-06 3.847196802661095e-06 1.9235984013305475e-06 -0.0002821277655284803" config_type=Accurate_Bulk energy=-3929.949373685 stress="-6.734588346828036e-06 1.6914489731143627e-06 -3.744905475529955e-08 1.6914489731143627e-06 -8.86918446788011e-06 -1.8724527377649774e-08 -3.744905475529955e-08 -1.8724527377649774e-08 2.7462640153886334e-06" pbc="T T T"
P        2.08230256       1.20222243      -0.00028132       0.00005000       0.00003000      -0.00006000
P        4.16463108       2.40445498       3.41943508      -0.00004000      -0.00003000      -0.00006000
In       2.08231214       1.20222551       2.56116901       0.00003000       0.00002000       0.00006000
In       4.16462193       2.40444724       5.98088541      -0.00004000      -0.00002000       0.00006000
4
Lattice="4.1646023 -2.2e-06 -1.5e-06 2.0822994 3.6066516 -1.6e-06 -2.5e-06 -1.6e-06 6.839369" Properties=species:S:1:pos:R:3:forces:R:3 virial="0.001133615472773927 -0.0001731200099824436 6.411852221571987e-06 -0.0001731200099824436 0.0013522596335295318 3.2059261107859934e-06 6.411852221571987e-06 3.2059261107859934e-06 0.0006540089266003427" config_type=Accurate_Bulk energy=-3929.949373688 stress="-1.10349881345616e-05 1.6852074639884797e-06 -6.241509125883259e-08 1.6852074639884797e-06 -1.3163342746487792e-05 -3.1207545629416294e-08 -6.241509125883259e-08 -3.1207545629416294e-08 -6.366339308400924e-06" pbc="T T T"
P        2.08229016       1.20221526      -0.00028145       0.00004000       0.00002000      -0.00009000
P        4.16460613       2.40444055       3.41940202      -0.00004000      -0.00002000      -0.00009000
In       2.08229963       1.20221827       2.56114432       0.00004000       0.00002000       0.00009000
In       4.16459686       2.40443274       5.98082778      -0.00004000      -0.00002000       0.00009000
4
Lattice="4.164628 -7.1e-06 -1.3e-06 2.0823081 3.6066768 -1.3e-06 -2.1e-06 -1.3e-06 6.8393996" Properties=species:S:1:pos:R:3:forces:R:3 virial="0.001949879965444559 -3.205984816580992e-05 0.0 -3.205984816580992e-05 0.0019902753741334795 0.0 0.0 0.0 0.0017273846191738383" config_type=Accurate_Bulk energy=-3929.949373689 stress="-1.8980429251810987e-05 3.120754562941629e-07 -0.0 3.120754562941629e-07 -1.9373644326741632e-05 -0.0 -0.0 -0.0 -1.6814625585129498e-05" pbc="T T T"
P        2.08230162       1.20222203      -0.00028128       0.00004000       0.00002000      -0.00010000
P        4.16462926       2.40445423       3.41941765      -0.00004000      -0.00002000      -0.00010000
In       2.08231125       1.20222515       2.56115594       0.00003000       0.00002000       0.00010000
In       4.16462015       2.40444653       5.98085487      -0.00003000      -0.00002000       0.00010000
4
Lattice="4.1646575 -1.28e-05 -1e-06 2.0823179 3.6067057 -1e-06 -1.6e-06 -1.1e-06 6.8394348" Properties=species:S:1:pos:R:3:forces:R:3 virial="0.0011355837066749713 7.245678083245158e-05 -3.206052249223522e-06 7.245678083245158e-05 0.0010445318227970232 -1.923631349534113e-06 -3.206052249223522e-06 -1.923631349534113e-06 0.0011176298140793196" config_type=Accurate_Bulk energy=-3929.94937366 stress="-1.105371266193925e-05 -7.052905312248082e-07 3.1207545629416294e-08 -7.052905312248082e-07 -1.0167418366063828e-05 1.8724527377649774e-08 3.1207545629416294e-08 1.8724527377649774e-08 -1.0878950406414518e-05" pbc="T T T"
P        2.08231472       1.20222976      -0.00028108       0.00002000       0.00001000      -0.00013000
P        4.16465571       2.40446980       3.41943565      -0.00002000      -0.00001000      -0.00013000
In       2.08232453       1.20223296       2.56116932       0.00001000       0.00001000       0.00013000
In       4.16464679       2.40446217       5.98088606      -0.00001000      -0.00001000       0.00013000
4
Lattice="4.164724 -8.5e-06 -1.2e-06 2.0823548 3.6067608 -1.2e-06 -1.9e-06 -1.2e-06 6.8395422" Properties=species:S:1:pos:R:3:forces:R:3 virial="-0.0018499778948047564 -2.1160925659811772e-05 6.412401715094476e-07 -2.1160925659811772e-05 -0.0018230458076013594 0.0 6.412401715094476e-07 0.0 -0.0019166668726417386" config_type=Accurate_Bulk energy=-3929.949373553 stress="1.80067538281732e-05 2.0596980115414753e-07 -6.241509125883258e-09 2.0596980115414753e-07 1.7744610444886102e-05 -0.0 -6.241509125883258e-09 -0.0 1.8655870777265056e-05" pbc="T T T"
P        2.08234919       1.20224956      -0.00028122       0.00003000       0.00002000      -0.00014000
P        4.16472450       2.40450935       3.41948908      -0.00003000      -0.00001000      -0.00014000
In       2.08235889       1.20225272       2.56120941       0.00002000       0.00001000       0.00014000
In       4.16471546       2.40450169       5.98097971      -0.00002000      -0.00001000       0.00014000
4
Lattice="4.1646823 -1.12e-05 -1e-06 2.0823317 3.6067262 -1.1e-06 -1.7e-06 -1.1e-06 6.8394748" Properties=species:S:1:pos:R:3:forces:R:3 virial="-0.0013555422946123772 3.783206971718555e-05 -1.9236645618907907e-06 3.783206971718555e-05 -0.001403633908659647 -1.2824430412605272e-06 -1.9236645618907907e-06 -1.2824430412605272e-06 -0.0014177407821135126" config_type=Accurate_Bulk energy=-3929.949373629 stress="1.3194550292117207e-05 -3.682490384271122e-07 1.8724527377649774e-08 -3.682490384271122e-07 1.3662663476558452e-05 1.2483018251766515e-08 1.8724527377649774e-08 1.2483018251766515e-08 1.3799976677327883e-05" pbc="T T T"
P        2.08232759       1.20223713      -0.00028112       0.00002000       0.00001000      -0.00014000
P        4.16468140       2.40448453       3.41945558      -0.00002000      -0.00001000      -0.00014000
In       2.08233736       1.20224033       2.56118427       0.00001000       0.00001000       0.00014000
In       4.16467243       2.40447691       5.98092097      -0.00002000      -0.00001000       0.00014000
4
Lattice="4.1646575 -1.28e-05 -1e-06 2.0823179 3.6067057 -1e-06 -1.6e-06 -1.1e-06 6.8394348" Properties=species:S:1:pos:R:3:forces:R:3 virial="-0.001513256661633502 5.514409868664457e-05 -2.564841799378817e-06 5.514409868664457e-05 -0.0015831486006665748 -1.2824208996894085e-06 -2.564841799378817e-06 -1.2824208996894085e-06 -0.001565835918520768" config_type=Accurate_Bulk energy=-3929.94937366 stress="1.4729961537084489e-05 -5.367697848259602e-07 2.496603650353303e-08 -5.367697848259602e-07 1.5410286031805764e-05 1.2483018251766515e-08 2.496603650353303e-08 1.2483018251766515e-08 1.5241765285406918e-05" pbc="T T T"
P        2.08231472       1.20222976      -0.00028108       0.00001000       0.00001000      -0.00014000
P        4.16465571       2.40446980       3.41943565      -0.00001000      -0.00001000      -0.00014000
In       2.08232453       1.20223296       2.56116932       0.00001000       0.00001000       0.00014000
In       4.16464679       2.40446217       5.98088606      -0.00001000      -0.00001000       0.00014000
4