8
Lattice="5.901274 0.0 0.0 0.0 5.901274 0.0 0.0 0.0 5.901274" Properties=species:S:1:pos:R:3:forces:R:3 virial="-0.02140835439950056 -2.8219520478670598e-05 -2.8219520478670598e-05 -2.8219520478670598e-05 -0.02140835439950056 -2.8219520478670598e-05 -2.8219520478670598e-05 -2.8219520478670598e-05 -0.02140835439950056" config_type=Accurate_Bulk energy=-7859.940556874 stress="0.00010417078731099158 1.3731320076943167e-07 1.3731320076943167e-07 1.3731320076943167e-07 0.00010417078731099158 1.3731320076943167e-07 1.3731320076943167e-07 1.3731320076943167e-07 0.00010417078731099158" pbc="T T T"
P        1.47531850       1.47531850       4.42595550      -0.00001000      -0.00001000      -0.00001000
P        4.42595550       1.47531850       1.47531850      -0.00001000      -0.00001000      -0.00001000
P        1.47531850       4.42595550       1.47531850      -0.00001000      -0.00001000      -0.00001000
P        4.42595550       4.42595550       4.42595550      -0.00001000      -0.00001000      -0.00001000
In       0.00000000       0.00000000       0.00000000       0.00001000       0.00001000       0.00001000
In       2.95063700       0.00000000       2.95063700       0.00001000       0.00001000       0.00001000
In       0.00000000       2.95063700       2.95063700       0.00001000       0.00001000       0.00001000
In       2.95063700       2.95063700       0.00000000       0.00001000       0.00001000       0.00001000
8
Lattice="5.9012083 -1e-07 -1e-07 -1e-07 5.9012083 -1e-07 -1e-07 -1e-07 5.9012083" Properties=species:S:1:pos:R:3:forces:R:3 virial="-0.019080889357841718 -2.5653252699437642e-05 -2.5653252699437642e-05 -2.5653252699437642e-05 -0.019080889357841718 -2.437059006446576e-05 -2.5653252699437642e-05 -2.437059006446576e-05 -0.019080889357841718" config_type=Accurate_Bulk energy=-7859.940557424 stress="9.284868975663935e-05 1.2483018251766518e-07 1.2483018251766518e-07 1.2483018251766518e-07 9.284868975663935e-05 1.185886733917819e-07 1.2483018251766518e-07 1.185886733917819e-07 9.284868975663935e-05" pbc="T T T"
P        1.47530198       1.47530198       4.42590618      -0.00001000      -0.00001000      -0.00001000
P        4.42590617       1.47530198       1.47530198      -0.00001000      -0.00001000      -0.00001000
P        1.47530198       4.42590617       1.47530198      -0.00001000      -0.00001000      -0.00001000
P        4.42590608       4.42590608       4.42590608      -0.00001000      -0.00001000      -0.00001000
In       0.00000000       0.00000000       0.00000000       0.00001000       0.00001000       0.00001000
In       2.95060410      -0.00000010       2.95060410       0.00001000       0.00001000       0.00001000
In      -0.00000010       2.95060410       2.95060410       0.00001000       0.00001000       0.00001000
In       2.95060410       2.95060410      -0.00000010       0.00001000       0.00001000       0.00001000
8
Lattice="5.90067 -8e-07 -8e-07 -8e-07 5.90067 -8e-07 -8e-07 -8e-07 5.90067" Properties=species:S:1:pos:R:3:forces:R:3 virial="0.003807183315254366 -1.1540804930040181e-05 -1.1540804930040181e-05 -1.1540804930040181e-05 0.003807183315254366 -1.1540804930040181e-05 -1.1540804930040181e-05 -1.1540804930040181e-05 0.003807183315254366" config_type=Accurate_Bulk energy=-7859.940560564 stress="-1.853104059474739e-05 5.617358213294932e-08 5.617358213294932e-08 5.617358213294932e-08 -1.853104059474739e-05 5.617358213294932e-08 5.617358213294932e-08 5.617358213294932e-08 -1.853104059474739e-05" pbc="T T T"
P        1.47516670       1.47516670       4.42550210      -0.00001000      -0.00001000      -0.00001000
P        4.42550210       1.47516670       1.47516670      -0.00001000      -0.00001000      -0.00001000
P        1.47516670       4.42550210       1.47516670      -0.00001000      -0.00001000      -0.00001000
P        4.42550130       4.42550130       4.42550130      -0.00001000      -0.00001000      -0.00001000
In       0.00000000       0.00000000       0.00000000       0.00001000       0.00001000       0.00001000
In       2.95033460      -0.00000080       2.95033460       0.00001000       0.00001000       0.00001000
In      -0.00000080       2.95033460       2.95033460       0.00001000       0.00001000       0.00001000
In       2.95033460       2.95033460      -0.00000080       0.00001000       0.00001000       0.00001000
8
Lattice="5.9007612 -7e-07 -7e-07 -7e-07 5.9007612 -7e-07 -7e-07 -7e-07 5.9007612" Properties=species:S:1:pos:R:3:forces:R:3 virial="0.002418551927693236 -1.282371117546785e-05 -1.282371117546785e-05 -1.282371117546785e-05 0.002418551927693236 -1.282371117546785e-05 -1.282371117546785e-05 -1.282371117546785e-05 0.002418551927693236" config_type=Accurate_Bulk energy=-7859.940560501 stress="-1.1771486211415824e-05 6.241509125883259e-08 6.241509125883259e-08 6.241509125883259e-08 -1.1771486211415824e-05 6.241509125883259e-08 6.241509125883259e-08 6.241509125883259e-08 -1.1771486211415824e-05" pbc="T T T"
P        1.47518960       1.47518960       4.42557055      -0.00001000      -0.00001000      -0.00001000
P        4.42557055       1.47518960       1.47518960      -0.00001000      -0.00001000      -0.00001000
P        1.47518960       4.42557055       1.47518960      -0.00001000      -0.00001000      -0.00001000
P        4.42556985       4.42556985       4.42556985      -0.00001000      -0.00001000      -0.00001000
In       0.00000000       0.00000000       0.00000000       0.00001000       0.00001000       0.00001000
In       2.95038025      -0.00000070       2.95038025       0.00001000       0.00001000       0.00001000
In      -0.00000070       2.95038025       2.95038025       0.00001000       0.00001000       0.00001000
In       2.95038025       2.95038025      -0.00000070       0.00001000       0.00001000       0.00001000
8
Lattice="5.9009201 -6e-07 -6e-07 -6e-07 5.9009201 -6e-07 -6e-07 -6e-07 5.9009201" Properties=species:S:1:pos:R:3:forces:R:3 virial="-0.002895827913718132 -1.6672171336729722e-05 -1.6672171336729722e-05 -1.6672171336729722e-05 -0.002895827913718132 -1.6672171336729722e-05 -1.6672171336729722e-05 -1.6672171336729722e-05 -0.002895827913718132" config_type=Accurate_Bulk energy=-7859.94056034 stress="1.4093327606244396e-05 8.113961863648234e-08 8.113961863648234e-08 8.113961863648234e-08 1.4093327606244396e-05 8.113961863648234e-08 8.113961863648234e-08 8.113961863648234e-08 1.4093327606244396e-05" pbc="T T T"
P        1.47522942       1.47522942       4.42568977      -0.00001000      -0.00001000      -0.00001000
P        4.42568977       1.47522942       1.47522942      -0.00001000      -0.00001000      -0.00001000
P        1.47522942       4.42568977       1.47522942      -0.00001000      -0.00001000      -0.00001000
P        4.42568917       4.42568917       4.42568917      -0.00001000      -0.00001000      -0.00001000
In       0.00000000       0.00000000       0.00000000       0.00001000       0.00001000       0.00001000
In       2.95045975      -0.00000060       2.95045975       0.00001000       0.00001000       0.00001000
In      -0.00000060       2.95045975       2.95045975       0.00001000       0.00001000       0.00001000
In       2.95045975       2.95045975      -0.00000060       0.00001000       0.00001000       0.00001000
8
Lattice="5.9009201 -6e-07 -6e-07 -6e-07 5.9009201 -6e-07 -6e-07 -6e-07 5.9009201" Properties=species:S:1:pos:R:3:forces:R:3 virial="-0.002895827913718132 -1.5389696618519747e-05 -1.5389696618519747e-05 -1.5389696618519747e-05 -0.002895827913718132 -1.5389696618519747e-05 -1.5389696618519747e-05 -1.5389696618519747e-05 -0.002895827913718132" config_type=Accurate_Bulk energy=-7859.94056034 stress="1.4093327606244396e-05 7.48981095105991e-08 7.48981095105991e-08 7.48981095105991e-08 1.4093327606244396e-05 7.48981095105991e-08 7.48981095105991e-08 7.48981095105991e-08 1.4093327606244396e-05" pbc="T T T"
P        1.47522942       1.47522942       4.42568977      -0.00001000      -0.00001000      -0.00001000
P        4.42568977       1.47522942       1.47522942      -0.00001000      -0.00001000      -0.00001000
P        1.47522942       4.42568977       1.47522942      -0.00001000      -0.00001000      -0.00001000
P        4.42568917       4.42568917       4.42568917      -0.00001000      -0.00001000      -0.00001000
In       0.00000000       0.00000000       0.00000000       0.00001000       0.00001000       0.00001000
In       2.95045975      -0.00000060       2.95045975       0.00001000       0.00001000       0.00001000
In      -0.00000060       2.95045975       2.95045975       0.00001000       0.00001000       0.00001000
In       2.95045975       2.95045975      -0.00000060       0.00001000       0.00001000       0.00001000
8
Lattice="5.9008335 -7e-07 -7e-07 -7e-07 5.9008335 -7e-07 -7e-07 -7e-07 5.9008335" Properties=species:S:1:pos:R:3:forces:R:3 virial="-0.002595614549097035 -1.4106600810309972e-05 -1.4106600810309972e-05 -1.4106600810309972e-05 -0.002595614549097035 -1.4106600810309972e-05 -1.4106600810309972e-05 -1.4106600810309972e-05 -0.002595614549097035" config_type=Accurate_Bulk energy=-7859.940560392 stress="1.2632814470787716e-05 6.865660038471584e-08 6.865660038471584e-08 6.865660038471584e-08 1.2632814470787716e-05 6.865660038471584e-08 6.865660038471584e-08 6.865660038471584e-08 1.2632814470787716e-05" pbc="T T T"
P        1.47520768       1.47520768       4.42562478      -0.00001000      -0.00001000      -0.00001000
P        4.42562477       1.47520768       1.47520768      -0.00001000      -0.00001000      -0.00001000
P        1.47520768       4.42562477       1.47520768      -0.00001000      -0.00001000      -0.00001000
P        4.42562407       4.42562407       4.42562407      -0.00001000      -0.00001000      -0.00001000
In       0.00000000       0.00000000       0.00000000       0.00001000       0.00001000       0.00001000
In       2.95041640      -0.00000070       2.95041640       0.00001000       0.00001000       0.00001000
In      -0.00000070       2.95041640       2.95041640       0.00001000       0.00001000       0.00001000
In       2.95041640       2.95041640      -0.00000070       0.00001000       0.00001000       0.00001000
8
Lattice="5.9007622 -7e-07 -7e-07 -7e-07 5.9007622 -7e-07 -7e-07 -7e-07 5.9007622" Properties=species:S:1:pos:R:3:forces:R:3 virial="0.0007976352406388841 -1.282371769515891e-05 -1.282371769515891e-05 -1.282371769515891e-05 0.0007976352406388841 -1.1541345925643018e-05 -1.282371769515891e-05 -1.1541345925643018e-05 0.0007976352406388841" config_type=Accurate_Bulk energy=-7859.940560495 stress="-3.882218676299387e-06 6.241509125883259e-08 6.241509125883259e-08 6.241509125883259e-08 -3.882218676299387e-06 5.617358213294932e-08 6.241509125883259e-08 5.617358213294932e-08 -3.882218676299387e-06" pbc="T T T"
P        1.47518985       1.47518985       4.42557130      -0.00001000      -0.00001000      -0.00001000
P        4.42557130       1.47518985       1.47518985      -0.00001000      -0.00001000      -0.00001000
P        1.47518985       4.42557130       1.47518985      -0.00001000      -0.00001000      -0.00001000
P        4.42557060       4.42557060       4.42557060      -0.00001000      -0.00001000      -0.00001000
In       0.00000000       0.00000000       0.00000000       0.00001000       0.00001000       0.00001000
In       2.95038075      -0.00000070       2.95038075       0.00001000       0.00001000       0.00001000
In      -0.00000070       2.95038075       2.95038075       0.00001000       0.00001000       0.00001000
In       2.95038075       2.95038075      -0.00000070       0.00001000       0.00001000       0.00001000
8
Lattice="5.9007627 -7e-07 -7e-07 -7e-07 5.9007627 -7e-07 -7e-07 -7e-07 5.9007627" Properties=species:S:1:pos:R:3:forces:R:3 virial="0.001406762188764077 -1.1541348859504734e-05 -1.1541348859504734e-05 -1.1541348859504734e-05 0.001406762188764077 -1.1541348859504734e-05 -1.1541348859504734e-05 -1.1541348859504734e-05 0.001406762188764077" config_type=Accurate_Bulk energy=-7859.940560492 stress="-6.8469355110939345e-06 5.617358213294932e-08 5.617358213294932e-08 5.617358213294932e-08 -6.8469355110939345e-06 5.617358213294932e-08 5.617358213294932e-08 5.617358213294932e-08 -6.8469355110939345e-06" pbc="T T T"
P        1.47518997       1.47518997       4.42557167      -0.00001000      -0.00001000      -0.00001000
P        4.42557167       1.47518997       1.47518997      -0.00001000      -0.00001000      -0.00001000
P        1.47518997       4.42557167       1.47518997      -0.00001000      -0.00001000      -0.00001000
P        4.42557097       4.42557097       4.42557097      -0.00001000      -0.00001000      -0.00001000
In       0.00000000       0.00000000       0.00000000       0.00001000       0.00001000       0.00001000
In       2.95038100      -0.00000070       2.95038100       0.00001000       0.00001000       0.00001000
In      -0.00000070       2.95038100       2.95038100       0.00001000       0.00001000       0.00001000
In       2.95038100       2.95038100      -0.00000070       0.00001000       0.00001000       0.00001000
8
Lattice="5.9007616 -7e-07 -7e-07 -7e-07 5.9007616 -7e-07 -7e-07 -7e-07 5.9007616" Properties=species:S:1:pos:R:3:forces:R:3 virial="0.0015055039981645866 -1.538845654001281e-05 -1.538845654001281e-05 -1.538845654001281e-05 0.0015055039981645866 -1.538845654001281e-05 -1.538845654001281e-05 -1.538845654001281e-05 0.0015055039981645866" config_type=Accurate_Bulk energy=-7859.940560499 stress="-7.327531713786944e-06 7.48981095105991e-08 7.48981095105991e-08 7.48981095105991e-08 -7.327531713786944e-06 7.48981095105991e-08 7.48981095105991e-08 7.48981095105991e-08 -7.327531713786944e-06" pbc="T T T"
P        1.47518970       1.47518970       4.42557085      -0.00001000      -0.00001000      -0.00001000
P        4.42557085       1.47518970       1.47518970      -0.00001000      -0.00001000      -0.00001000
P        1.47518970       4.42557085       1.47518970      -0.00001000      -0.00001000      -0.00001000
P        4.42557015       4.42557015       4.42557015      -0.00001000      -0.00001000      -0.00001000
In       0.00000000       0.00000000       0.00000000       0.00001000       0.00001000       0.00001000
In       2.95038045      -0.00000070       2.95038045       0.00001000       0.00001000       0.00001000
In      -0.00000070       2.95038045       2.95038045       0.00001000       0.00001000       0.00001000
In       2.95038045       2.95038045      -0.00000070       0.00001000       0.00001000       0.00001000
8
Lattice="5.9007642 -8e-07 -8e-07 -8e-07 5.9007642 -8e-07 -8e-07 -8e-07 5.9007642" Properties=species:S:1:pos:R:3:forces:R:3 virial="0.0013670096963027624 -5.129492293818996e-06 -5.129492293818996e-06 -5.129492293818996e-06 0.0013670096963027624 -5.129492293818996e-06 -5.129492293818996e-06 -5.129492293818996e-06 0.0013670096963027624" config_type=Accurate_Bulk energy=-7859.940560484 stress="-6.653448728191553e-06 2.496603650353303e-08 2.496603650353303e-08 2.496603650353303e-08 -6.653448728191553e-06 2.496603650353303e-08 2.496603650353303e-08 2.496603650353303e-08 -6.653448728191553e-06" pbc="T T T"
P        1.47519025       1.47519025       4.42557275      -0.00000000      -0.00000000      -0.00000000
P        4.42557275       1.47519025       1.47519025      -0.00000000      -0.00000000      -0.00000000
P        1.47519025       4.42557275       1.47519025      -0.00000000      -0.00000000      -0.00000000
P        4.42557195       4.42557195       4.42557195      -0.00000000      -0.00000000      -0.00000000
In       0.00000000       0.00000000       0.00000000       0.00000000       0.00000000       0.00000000
In       2.95038170      -0.00000080       2.95038170       0.00000000       0.00000000       0.00000000
In      -0.00000080       2.95038170       2.95038170       0.00000000       0.00000000       0.00000000
In       2.95038170       2.95038170      -0.00000080       0.00000000       0.00000000       0.00000000
8
Lattice="5.9007651 -9e-07 -9e-07 -9e-07 5.9007651 -8e-07 -9e-07 -8e-07 5.9007651" Properties=species:S:1:pos:R:3:forces:R:3 virial="0.0013182801227138883 -1.154136294204766e-05 -1.154136294204766e-05 -1.154136294204766e-05 0.0013182801227138883 -1.154136294204766e-05 -1.154136294204766e-05 -1.154136294204766e-05 0.0013182801227138883" config_type=Accurate_Bulk energy=-7859.940560479 stress="-6.41627138140799e-06 5.617358213294932e-08 5.617358213294932e-08 5.617358213294932e-08 -6.41627138140799e-06 5.617358213294932e-08 5.617358213294932e-08 5.617358213294932e-08 -6.41627138140799e-06" pbc="T T T"
P        1.47519038       1.47519045       4.42557340      -0.00001000      -0.00001000      -0.00001000
P        4.42557337       1.47519040       1.47519040      -0.00001000      -0.00001000      -0.00001000
P        1.47519038       4.42557340       1.47519045      -0.00001000      -0.00001000      -0.00001000
P        4.42557248       4.42557255       4.42557255      -0.00001000      -0.00001000      -0.00001000
In       0.00000000       0.00000000       0.00000000       0.00001000       0.00001000       0.00001000
In       2.95038210      -0.00000085       2.95038210       0.00001000       0.00001000       0.00001000
In      -0.00000090       2.95038215       2.95038215       0.00001000       0.00001000       0.00001000
In       2.95038210       2.95038210      -0.00000085       0.00001000       0.00001000       0.00001000
8
Lattice="5.9007892 -9e-07 -9e-07 -9e-07 5.9007892 -1e-06 -9e-07 -1e-06 5.9007892" Properties=species:S:1:pos:R:3:forces:R:3 virial="0.0019915506959044212 -1.4106283100417666e-05 -1.2823893727652425e-05 -1.4106283100417666e-05 0.0019915506959044212 -1.2823893727652425e-05 -1.2823893727652425e-05 -1.2823893727652425e-05 0.0019915506959044212" config_type=Accurate_Bulk energy=-7859.940560336 stress="-9.693063672496698e-06 6.865660038471584e-08 6.241509125883259e-08 6.865660038471584e-08 -9.693063672496698e-06 6.241509125883259e-08 6.241509125883259e-08 6.241509125883259e-08 -9.693063672496698e-06" pbc="T T T"
P        1.47519640       1.47519632       4.42559143      -0.00000000      -0.00000000      -0.00000000
P        4.42559145       1.47519638       1.47519638      -0.00000000      -0.00000000      -0.00000000
P        1.47519640       4.42559143       1.47519632      -0.00000000      -0.00000000      -0.00000000
P        4.42559055       4.42559048       4.42559048      -0.00000000      -0.00000000      -0.00000000
In       0.00000000       0.00000000       0.00000000       0.00000000       0.00000000       0.00001000
In       2.95039415      -0.00000095       2.95039415       0.00001000       0.00000000       0.00000000
In      -0.00000090       2.95039410       2.95039410       0.00000000       0.00001000       0.00000000
In       2.95039415       2.95039415      -0.00000095       0.00001000       0.00001000       0.00001000
8
Lattice="5.9007176 -7e-07 -7e-07 -7e-07 5.9007176 -6e-07 -7e-07 -6e-07 5.9007176" Properties=species:S:1:pos:R:3:forces:R:3 virial="0.0027916600402850583 -6.411713459543084e-06 -6.411713459543084e-06 -6.411713459543084e-06 0.0027916600402850583 -6.411713459543084e-06 -6.411713459543084e-06 -6.411713459543084e-06 0.0027916600402850583" config_type=Accurate_Bulk energy=-7859.940560722 stress="-1.3587765367047853e-05 3.1207545629416294e-08 3.1207545629416294e-08 3.1207545629416294e-08 -1.3587765367047853e-05 3.1207545629416294e-08 3.1207545629416294e-08 3.1207545629416294e-08 -1.3587765367047853e-05" pbc="T T T"
P        1.47517870       1.47517878       4.42553787      -0.00002000      -0.00002000      -0.00002000
P        4.42553785       1.47517873       1.47517873      -0.00002000      -0.00002000      -0.00002000
P        1.47517870       4.42553787       1.47517878      -0.00002000      -0.00002000      -0.00002000
P        4.42553715       4.42553723       4.42553723      -0.00002000      -0.00002000      -0.00002000
In       0.00000000       0.00000000       0.00000000       0.00002000       0.00002000       0.00002000
In       2.95035845      -0.00000065       2.95035845       0.00002000       0.00002000       0.00002000
In      -0.00000070       2.95035850       2.95035850       0.00002000       0.00002000       0.00002000
In       2.95035845       2.95035845      -0.00000065       0.00002000       0.00002000       0.00002000
8
Lattice="5.9007904 -1.1e-06 -1.1e-06 -1.1e-06 5.9007904 -1.1e-06 -1.1e-06 -1.1e-06 5.9007904" Properties=species:S:1:pos:R:3:forces:R:3 virial="0.0020415651269758478 -2.0518242482169325e-05 -2.0518242482169325e-05 -2.0518242482169325e-05 0.0020415651269758478 -2.0518242482169325e-05 -2.0518242482169325e-05 -2.0518242482169325e-05 0.0020415651269758478" config_type=Accurate_Bulk energy=-7859.940560329 stress="-9.936482528406147e-06 9.986414601413212e-08 9.986414601413212e-08 9.986414601413212e-08 -9.936482528406147e-06 9.986414601413212e-08 9.986414601413212e-08 9.986414601413212e-08 -9.936482528406147e-06" pbc="T T T"
P        1.47519650       1.47519650       4.42559225       0.00000000       0.00000000       0.00000000
P        4.42559225       1.47519650       1.47519650       0.00000000       0.00000000       0.00000000
P        1.47519650       4.42559225       1.47519650       0.00000000       0.00000000       0.00000000
P        4.42559115       4.42559115       4.42559115       0.00000000       0.00000000       0.00000000
In       0.00000000       0.00000000       0.00000000      -0.00000000      -0.00000000      -0.00000000
In       2.95039465      -0.00000110       2.95039465      -0.00000000      -0.00000000      -0.00000000
In      -0.00000110       2.95039465       2.95039465      -0.00000000      -0.00000000      -0.00000000
In       2.95039465       2.95039465      -0.00000110      -0.00000000      -0.00000000      -0.00000000
8
Lattice="5.9007182 -5e-07 -5e-07 -5e-07 5.9007182 -4e-07 -5e-07 -4e-07 5.9007182" Properties=species:S:1:pos:R:3:forces:R:3 virial="0.002778837461043676 1.1541087747758692e-05 1.1541087747758692e-05 1.1541087747758692e-05 0.002778837461043676 1.1541087747758692e-05 1.1541087747758692e-05 1.1541087747758692e-05 0.002778837461043676" config_type=Accurate_Bulk energy=-7859.940560719 stress="-1.352535027578902e-05 -5.617358213294932e-08 -5.617358213294932e-08 -5.617358213294932e-08 -1.352535027578902e-05 -5.617358213294932e-08 -5.617358213294932e-08 -5.617358213294932e-08 -1.352535027578902e-05" pbc="T T T"
P        1.47517905       1.47517913       4.42553843      -0.00003000      -0.00003000      -0.00003000
P        4.42553840       1.47517908       1.47517908      -0.00003000      -0.00003000      -0.00003000
P        1.47517905       4.42553843       1.47517912      -0.00003000      -0.00003000      -0.00003000
P        4.42553790       4.42553798       4.42553798      -0.00003000      -0.00003000      -0.00003000
In       0.00000000       0.00000000       0.00000000       0.00003000       0.00003000       0.00003000
In       2.95035885      -0.00000045       2.95035885       0.00003000       0.00003000       0.00003000
In      -0.00000050       2.95035890       2.95035890       0.00003000       0.00003000       0.00003000
In       2.95035885       2.95035885      -0.00000045       0.00003000       0.00003000       0.00003000
8
Lattice="5.9008515 -1.6e-06 -1.6e-06 -1.6e-06 5.9008515 -1.6e-06 -1.6e-06 -1.6e-06 5.9008515" Properties=species:S:1:pos:R:3:forces:R:3 virial="-0.00022057795849462098 -4.4885049693672864e-05 -4.4885049693672864e-05 -4.4885049693672864e-05 -0.00022057795849462098 -4.360261970242508e-05 -4.4885049693672864e-05 -4.360261970242508e-05 -0.00022057795849462098" config_type=Accurate_Bulk energy=-7859.940560259 stress="1.0735395696519204e-06 2.18452819405914e-07 2.18452819405914e-07 2.18452819405914e-07 1.0735395696519204e-06 2.1221131028003077e-07 2.18452819405914e-07 2.1221131028003077e-07 1.0735395696519204e-06" pbc="T T T"
P        1.47521127       1.47521127       4.42563782       0.00003000       0.00003000       0.00003000
P        4.42563782       1.47521127       1.47521127       0.00003000       0.00003000       0.00003000
P        1.47521127       4.42563782       1.47521127       0.00003000       0.00003000       0.00003000
P        4.42563622       4.42563622       4.42563622       0.00003000       0.00003000       0.00003000
In       0.00000000       0.00000000       0.00000000      -0.00003000      -0.00003000      -0.00003000
In       2.95042495      -0.00000160       2.95042495      -0.00003000      -0.00003000      -0.00003000
In      -0.00000160       2.95042495       2.95042495      -0.00003000      -0.00003000      -0.00003000
In       2.95042495       2.95042495      -0.00000160      -0.00003000      -0.00003000      -0.00003000
8
Lattice="5.9008385 -1.5e-06 -1.5e-06 -1.5e-06 5.9008385 -1.5e-06 -1.5e-06 -1.5e-06 5.9008385" Properties=species:S:1:pos:R:3:forces:R:3 virial="-0.001972364290700817 -5.257928213181632e-05 -5.257928213181632e-05 -5.257928213181632e-05 -0.001972364290700817 -5.257928213181632e-05 -5.257928213181632e-05 -5.257928213181632e-05 -0.001972364290700817" config_type=Accurate_Bulk energy=-7859.940560356 stress="9.59944103560845e-06 2.559018741612136e-07 2.559018741612136e-07 2.559018741612136e-07 9.59944103560845e-06 2.559018741612136e-07 2.559018741612136e-07 2.559018741612136e-07 9.59944103560845e-06" pbc="T T T"
P        1.47520812       1.47520812       4.42562813      -0.00001000      -0.00001000      -0.00001000
P        4.42562813       1.47520812       1.47520812      -0.00001000      -0.00001000      -0.00001000
P        1.47520812       4.42562813       1.47520812      -0.00001000      -0.00001000      -0.00001000
P        4.42562663       4.42562663       4.42562663      -0.00001000      -0.00001000      -0.00001000
In       0.00000000       0.00000000       0.00000000       0.00001000       0.00001000       0.00001000
In       2.95041850      -0.00000150       2.95041850       0.00001000       0.00001000       0.00001000
In      -0.00000150       2.95041850       2.95041850       0.00001000       0.00001000       0.00001000
In       2.95041850       2.95041850      -0.00000150       0.00001000       0.00001000       0.00001000
8
Lattice="5.9008533 -1.6e-06 -1.6e-06 -1.6e-06 5.9008533 -1.6e-06 -1.6e-06 -1.6e-06 5.9008533" Properties=species:S:1:pos:R:3:forces:R:3 virial="-0.002654632511194509 -5.257967775795888e-05 -5.129724659313062e-05 -5.257967775795888e-05 -0.002654632511194509 -5.129724659313062e-05 -5.129724659313062e-05 -5.129724659313062e-05 -0.002654632511194509" config_type=Accurate_Bulk energy=-7859.940560245 stress="1.2919923890578343e-05 2.559018741612136e-07 2.4966036503533035e-07 2.559018741612136e-07 1.2919923890578343e-05 2.4966036503533035e-07 2.4966036503533035e-07 2.4966036503533035e-07 1.2919923890578343e-05" pbc="T T T"
P        1.47521172       1.47521172       4.42563917       0.00003000       0.00003000       0.00003000
P        4.42563917       1.47521172       1.47521172       0.00003000       0.00003000       0.00003000
P        1.47521172       4.42563917       1.47521172       0.00003000       0.00003000       0.00003000
P        4.42563757       4.42563757       4.42563757       0.00003000       0.00003000       0.00003000
In       0.00000000       0.00000000       0.00000000      -0.00003000      -0.00003000      -0.00003000
In       2.95042585      -0.00000160       2.95042585      -0.00003000      -0.00003000      -0.00003000
In      -0.00000160       2.95042585       2.95042585      -0.00003000      -0.00003000      -0.00003000
In       2.95042585       2.95042585      -0.00000160      -0.00003000      -0.00003000      -0.00003000
8
Lattice="5.9008495 -1.6e-06 -1.6e-06 -1.6e-06 5.9008495 -1.6e-06 -1.6e-06 -1.6e-06 5.9008495" Properties=species:S:1:pos:R:3:forces:R:3 virial="-0.0024378969345009143 -5.642686223989491e-05 -5.642686223989491e-05 -5.642686223989491e-05 -0.0024378969345009143 -5.514443355262458e-05 -5.642686223989491e-05 -5.514443355262458e-05 -0.0024378969345009143" config_type=Accurate_Bulk energy=-7859.940560274 stress="1.1865108848304072e-05 2.7462640153886334e-07 2.7462640153886334e-07 2.7462640153886334e-07 1.1865108848304072e-05 2.683848924129801e-07 2.7462640153886334e-07 2.683848924129801e-07 1.1865108848304072e-05" pbc="T T T"
P        1.47521077       1.47521077       4.42563633       0.00000000       0.00000000       0.00000000
P        4.42563632       1.47521077       1.47521077       0.00000000       0.00000000       0.00000000
P        1.47521077       4.42563632       1.47521077       0.00000000       0.00000000       0.00000000
P        4.42563473       4.42563473       4.42563473       0.00000000       0.00000000       0.00000000
In       0.00000000       0.00000000       0.00000000      -0.00000000      -0.00000000      -0.00000000
In       2.95042395      -0.00000160       2.95042395      -0.00000000      -0.00000000      -0.00000000
In      -0.00000160       2.95042395       2.95042395      -0.00000000      -0.00000000      -0.00000000
In       2.95042395       2.95042395      -0.00000160      -0.00000000      -0.00000000      -0.00000000
8
Lattice="5.9007142 -4.7e-06 -4.7e-06 -4.7e-06 5.9007142 -4.7e-06 -4.7e-06 -4.7e-06 5.9007142" Properties=species:S:1:pos:R:3:forces:R:3 virial="0.001406727501344507 3.590553330687894e-05 3.590553330687894e-05 3.590553330687894e-05 0.001406727501344507 3.590553330687894e-05 3.590553330687894e-05 3.590553330687894e-05 0.001406727501344507" config_type=Accurate_Bulk energy=-7859.940560738 stress="-6.8469355110939345e-06 -1.7476225552473123e-07 -1.7476225552473123e-07 -1.7476225552473123e-07 -6.8469355110939345e-06 -1.7476225552473123e-07 -1.7476225552473123e-07 -1.7476225552473123e-07 -6.8469355110939345e-06" pbc="T T T"
P        1.47517385       1.47517385       4.42553330      -0.00000000      -0.00000000      -0.00000000
P        4.42553330       1.47517385       1.47517385      -0.00000000      -0.00000000      -0.00000000