 +-------------------------------------------------+
 |                                                 |
 |      CCC   AA    SSS  TTTTT  EEEEE  PPPP        |
 |     C     A  A  S       T    E      P   P       |
 |     C     AAAA   SS     T    EEE    PPPP        |
 |     C     A  A     S    T    E      P           |
 |      CCC  A  A  SSS     T    EEEEE  P           |
 |                                                 |
 +-------------------------------------------------+
 |                                                 |
 | Welcome to Academic Release CASTEP version 24.1 |
 | Ab Initio Total Energy Program                  |
 |                                                 |
 | Authors:                                        |
 | M. Segall, M. Probert, C. Pickard, P. Hasnip,   |
 | S. Clark, K. Refson, J. R. Yates,               |
 | A. Bartok-Partay, M. Payne                      |
 |                                                 |
 | Contributors:                                   |
 | P. Lindan, P. Haynes, J. White, V. Milman,      |
 | N. Govind, M. Gibson, P. Tulip, V. Cocula,      |
 | B. Montanari, D. Quigley, M. Glover,            |
 | L. Bernasconi, A. Perlov, M. Plummer,           |
 | E. McNellis, J. Meyer, J. Gale, D. Jochym       |
 | J. Aarons, B. Walker, R. Gillen, D. Jones       |
 | T. Green, I. J. Bush, C. J. Armstrong,          |
 | E. J. Higgins, E. L. Brown, M. S. McFly,        |
 | J. Wilkins, B-C. Shih, P. J. P. Byrne,          |
 | R. J. Maurer, J. C. Womack, J. Dziedzic,        |
 | L. LeBlanc, T. K. Stenczel, J. Kermode,         |
 | S. Sturniolo, B. Shi, B. Durham, M. Evans,      |
 | M. J. Smith, A. Tamerus, Z. Hawkhead,           |
 | V. Ravindran, T. Hollins, S. A. Joyce,          |
 | R. T. Strong, A. M. Reilly, S. J. Donaldson     |
 |                                                 |
 | Copyright (c) 2000 - 2023                       |
 |                                                 |
 |     Distributed under license from Cambridge    |
 |     Enterprise for academic use only.           |
 |                                                 |
 | Please cite                                     |
 |                                                 |
 |     "First principles methods using CASTEP"     |
 |                                                 |
 |         Zeitschrift fuer Kristallographie       |
 |           220(5-6) pp. 567-570 (2005)           |
 |                                                 |
 | S. J. Clark, M. D. Segall, C. J. Pickard,       |
 | P. J. Hasnip, M. J. Probert, K. Refson,         |
 | M. C. Payne                                     |
 |                                                 |
 |       in all publications arising from          |
 |              your use of CASTEP                 |
 |                                                 |
 +-------------------------------------------------+
 |                                                 |
 |              http://www.castep.org              |
 |                                                 |
 +-------------------------------------------------+



 Compiled for  GNU 11.2.0 on 04-04-2024 18:39:17
 from code version 6355fd106 Castep241_branch Thu Mar 7 17:56:19 2024 +0000
 Compiler: GNU Fortran 11.2.0; Optimisation: FAST
 Comms   : MPI VERSION : CRAY MPICH version 8.1.23.14 (ANL base 3.4a2)
 MATHLIBS: default (LAPACK version 3.10.1)
 FFT Lib : fftw3 version commercial-fftw-3.3.10-sse2-avx-avx2-avx2_128
 Fundamental constants values: CODATA 2018

 Run started: Sun, 27 Apr 2025 05:09:50 +0100

 Atomic calculation performed for P: 1s2 2s2 2p6 3s2 3p3

 Converged in 47 iterations to an ae energy of -9309.074 eV

   ============================================================                
   | Pseudopotential Report - Date of generation 27-04-2025   |                
   ------------------------------------------------------------                
   | Element: P Ionic charge:  5.00 Level of theory: RSCAN    |                
   | Atomic Solver: Koelling-Harmon                           |                
   |                                                          |                
   |               Reference Electronic Structure             |                
   |         Orbital         Occupation         Energy        |                
   |            3s              2.000           -0.535        |                
   |            3p              3.000           -0.209        |                
   |                                                          |                
   |                 Pseudopotential Definition               |                
   |        Beta     l      e      Rc     scheme   norm       |                
   |          1      0   -0.535   1.807     qc      0         |                
   |          2      0    0.250   1.807     qc      0         |                
   |          3      1   -0.209   1.807     qc      0         |                
   |          4      1    0.250   1.807     qc      0         |                
   |          5      2    0.000   1.807     qc      0         |                
   |          6      2    0.250   1.807     qc      0         |                
   |         loc     3    0.000   1.807     pn      0         |                
   |                                                          |                
   | Augmentation charge Rinner = 1.263                       |                
   | Partial core correction Rc = 1.263                       |                
   ------------------------------------------------------------                
   | "3|1.8|4|4|5|30:31:32"                                   |                
   ------------------------------------------------------------                
   |      Author: Chris J. Pickard, Cambridge University      |                
   ============================================================                
 Warning: otfg_output_psp cannot write out meta-GGA pseudopotentials presently.

 Atomic calculation performed for In:
 1s2 2s2 2p6 3s2 3p6 3d10 4s2 4p6 4d10 5s2 5p1

 Converged in 84 iterations to an ae energy of -160093.328 eV

   ============================================================                
   | Pseudopotential Report - Date of generation 27-04-2025   |                
   ------------------------------------------------------------                
   | Element: In Ionic charge: 13.00 Level of theory: RSCAN   |                
   | Atomic Solver: Koelling-Harmon                           |                
   |                                                          |                
   |               Reference Electronic Structure             |                
   |         Orbital         Occupation         Energy        |                
   |            4d             10.000           -0.711        |                
   |            5s              2.000           -0.313        |                
   |            5p              1.000           -0.095        |                
   |                                                          |                
   |                 Pseudopotential Definition               |                
   |        Beta     l      e      Rc     scheme   norm       |                
   |          1      0   -0.313   2.501     qc      0         |                
   |          2      0    0.250   2.501     qc      0         |                
   |          3      1   -0.095   2.501     qc      0         |                
   |          4      1    0.250   2.501     qc      0         |                
   |          5      2   -0.711   2.207     qc      0         |                
   |          6      2    0.250   2.207     qc      0         |                
   |         loc     3    0.000   2.501     pn      0         |                
   |                                                          |                
   | Augmentation charge Rinner = 1.504                       |                
   | Partial core correction Rc = 1.504                       |                
   ------------------------------------------------------------                
   | "3|2.5|2.5|1.5|7|8|9|50:51:42U2.2U2.2"                   |                
   ------------------------------------------------------------                
   |      Author: Chris J. Pickard, Cambridge University      |                
   ============================================================                
 Warning: otfg_output_psp cannot write out meta-GGA pseudopotentials presently.

 Pseudo atomic calculation performed for P 3s2 3p3

 Converged in 23 iterations to a total energy of -208.0292 eV

 Pseudo atomic calculation performed for In 4d10 5s2 5p1

 Converged in 42 iterations to a total energy of -1747.4501 eV
 Calculation parallelised over 108 processes.
 Data is distributed by G-vector(3-way) and k-point(36-way)
 Each process may use up to 16 threads.

 ************************************ Title ************************************
 

 ***************************** General Parameters ******************************
  
 output verbosity                               : normal  (1)
 write checkpoint data to                       : In_Interstitial_Migration_Tetra_Octa_Singlepoints_6.check
 type of calculation                            : single point energy
 stress calculation                             : off
 density difference calculation                 : off
 electron localisation func (ELF) calculation   : off
 Hirshfeld analysis                             : on
 polarisation (Berry phase) analysis            : off
 molecular orbital projected DOS                : off
 deltaSCF calculation                           : off
 unlimited duration calculation
 timing information                             : on
 memory usage estimate                          : on
 write extra output files                       : on
 write final potential to formatted file        : off
 write final density to formatted file          : off
 write BibTeX reference list                    : on
 write OTFG pseudopotential files               : on
 write electrostatic potential file             : on
 write bands file                               : on
 checkpoint writing                             : off
  
 output         length unit                     : A
 output           mass unit                     : amu
 output           time unit                     : ps
 output         charge unit                     : e
 output           spin unit                     : hbar/2
 output         energy unit                     : eV
 output          force unit                     : eV/A
 output       velocity unit                     : A/ps
 output       pressure unit                     : GPa
 output     inv_length unit                     : 1/A
 output      frequency unit                     : cm-1
 output force constant unit                     : eV/A**2
 output         volume unit                     : A**3
 output   IR intensity unit                     : (D/A)**2/amu
 output         dipole unit                     : D
 output         efield unit                     : eV/A/e
 output        entropy unit                     : J/mol/K
 output    efield chi2 unit                     : pm/V
  
 wavefunctions paging                           : none
 random number generator seed                   :   50950726
 data distribution                              : optimal for this architecture
 optimization strategy                          : balance speed and memory

 *********************** Exchange-Correlation Parameters ***********************
  
 using functional                               : RSCAN
 relativistic treatment                         : Koelling-Harmon
 DFT+D: Semi-empirical dispersion correction    : off

 ************************* Pseudopotential Parameters **************************
  
 pseudopotential representation                 : reciprocal space
 <beta|phi> representation                      : reciprocal space
 spin-orbit coupling                            : off

 **************************** Basis Set Parameters *****************************
  
 plane wave basis set cut-off                   :   900.0000   eV
 size of standard grid                          :     2.0000
 size of   fine   gmax                          :    30.7390   1/A
 finite basis set correction                    : none

 **************************** Electronic Parameters ****************************
  
 number of  electrons                           :  589.0    
 net charge of system                           :  0.000    
 net spin   of system                           :  1.000    
 number of  up  spins                           :  295.0    
 number of down spins                           :  294.0    
 treating system as spin-polarized
 number of bands                                :        354

 ********************* Electronic Minimization Parameters **********************
  
 Method: Treating system as metallic with density mixing treatment of electrons,
         and number of  SD  steps               :          1
         and number of  CG  steps               :          4
  
 total energy / atom convergence tol.           : 0.1000E-07   eV
 eigen-energy convergence tolerance             : 0.2203E-08   eV
 max force / atom convergence tol.              : ignored
 convergence tolerance window                   :          3   cycles
 max. number of SCF cycles                      :        100
 number of fixed-spin iterations                :         10
 smearing scheme                                : Gaussian
 smearing width                                 : 0.2000       eV
 Fermi energy convergence tolerance             : 0.2721E-13   eV
 periodic dipole correction                     : NONE

 ************************** Density Mixing Parameters **************************
  
 density-mixing scheme                          : Pulay
 max. length of mixing history                  :         20
 charge density mixing amplitude                : 0.5000    
   spin density mixing amplitude                :  2.000    
 cut-off energy for mixing                      :  900.0       eV

 *********************** Population Analysis Parameters ************************
  
 Population analysis with cutoff                :  3.000       A
 Population analysis output                     : summary and pdos components

 *******************************************************************************
  

                           -------------------------------
                                      Unit Cell
                           -------------------------------
        Real Lattice(A)                      Reciprocal Lattice(1/A)
    11.8025500     0.0000000     0.0000000        0.532358288   0.000000000   0.000000000
     0.0000000    11.8025500     0.0000000        0.000000000   0.532358288   0.000000000
     0.0000000     0.0000000    11.8025500        0.000000000   0.000000000   0.532358288

                       Lattice parameters(A)       Cell Angles
                    a =     11.802550          alpha =   90.000000
                    b =     11.802550          beta  =   90.000000
                    c =     11.802550          gamma =   90.000000

                       Current cell volume =          1644.097416       A**3
                                   density =             2.907464   AMU/A**3
                                           =             4.827958     g/cm^3

                           -------------------------------
                                     Cell Contents
                           -------------------------------
                         Total number of ions in cell =   65
                      Total number of species in cell =    2
                        Max number of any one species =   33

            xxxxxxxxxxxxxxxxxxxxxxxxxxxxxxxxxxxxxxxxxxxxxxxxxxxxxxxxxxxx
            x  Element    Atom        Fractional coordinates of atoms  x
            x            Number           u          v          w      x
            x----------------------------------------------------------x
            x  P            1         0.125920   0.124080   0.378268   x 
            x  P            2         0.382795   0.133727   0.134597   x 
            x  P            3         0.125920   0.377398   0.124950   x 
            x  P            4         0.375319   0.378076   0.378946   x 
            x  P            5         0.116273   0.133727   0.868075   x 
            x  P            6         0.377214   0.125187   0.623129   x 
            x  P            7         0.125590   0.375897   0.623520   x 
            x  P            8         0.382457   0.379500   0.868413   x 
            x  P            9         0.125590   0.622650   0.376767   x 
            x  P           10         0.377214   0.622259   0.126057   x 
            x  P           11         0.116273   0.867205   0.134597   x 
            x  P           12         0.382457   0.867543   0.380370   x 
            x  P           13         0.124813   0.622259   0.873656   x 
            x  P           14         0.376828   0.625846   0.626716   x 
            x  P           15         0.124813   0.872786   0.623129   x 
            x  P           16         0.371423   0.878577   0.879447   x 
            x  P           17         0.627350   0.124410   0.376767   x 
            x  P           18         0.872602   0.124080   0.124950   x 
            x  P           19         0.627350   0.375897   0.125280   x 
            x  P           20         0.879490   0.370510   0.371381   x 
            x  P           21         0.627741   0.125187   0.873656   x 
            x  P           22         0.874103   0.124410   0.623520   x 
            x  P           23         0.627805   0.374289   0.623065   x 
            x  P           24         0.871924   0.378076   0.875551   x 
            x  P           25         0.627805   0.622195   0.375159   x 
            x  P           26         0.874103   0.622650   0.125280   x 
            x  P           27         0.627741   0.872786   0.126057   x 
            x  P           28         0.871924   0.874681   0.378946   x 
            x  P           29         0.624154   0.625846   0.874043   x 
            x  P           30         0.875711   0.622195   0.623065   x 
            x  P           31         0.624154   0.873172   0.626716   x 
            x  P           32         0.870500   0.867543   0.868413   x 
            x  In           1        -0.016580  -0.005330  -0.004460   x 
            x  In           2         0.255330  -0.005330   0.267450   x 
            x  In           3         0.004887   0.245113   0.245983   x 
            x  In           4         0.255330   0.266580  -0.004460   x 
            x  In           5        -0.000694  -0.001002   0.500695   x 
            x  In           6         0.246194   0.003806   0.742551   x 
            x  In           7        -0.008361   0.258361   0.743378   x 
            x  In           8         0.251002   0.250694   0.500695   x 
            x  In           9        -0.000694   0.499825  -0.000132   x 
            x  In          10         0.251002   0.499825   0.251564   x 
            x  In          11        -0.008361   0.742508   0.259231   x 
            x  In          12         0.246194   0.741681   0.004676   x 
            x  In          13        -0.000254   0.496973   0.497843   x 
            x  In          14         0.250769   0.500409   0.746963   x 
            x  In          15         0.001475   0.746113   0.746983   x 
            x  In          16         0.250769   0.746093   0.501279   x 
            x  In          17         0.508319   0.003806   0.004676   x 
            x  In          18         0.750175  -0.001002   0.251564   x 
            x  In          19         0.507492   0.258361   0.259231   x 
            x  In          20         0.750175   0.250694  -0.000132   x 
            x  In          21         0.503907  -0.000769   0.501279   x 
            x  In          22         0.749591  -0.000769   0.746963   x 
            x  In          23         0.503887   0.248525   0.746983   x 
            x  In          24         0.753027   0.250254   0.497843   x 
            x  In          25         0.503907   0.500409   0.000101   x 
            x  In          26         0.753027   0.496973   0.251124   x 
            x  In          27         0.503887   0.746113   0.249395   x 
            x  In          28         0.749591   0.746093   0.000101   x 
            x  In          29         0.501887   0.501458   0.502328   x 
            x  In          30         0.748542   0.501458   0.748983   x 
            x  In          31         0.497690   0.752310   0.753180   x 
            x  In          32         0.748542   0.748113   0.502328   x 
            x  In          33         0.238453   0.011547   0.012417   x 
            xxxxxxxxxxxxxxxxxxxxxxxxxxxxxxxxxxxxxxxxxxxxxxxxxxxxxxxxxxxx


                         No user defined ionic velocities

                           -------------------------------
                                   Details of Species
                           -------------------------------

                               Mass of species in AMU
                                    P   30.9737600
                                    In  114.8180000

                          Electric Quadrupole Moment (Barn)
                                    P    1.0000000 No Isotope Defined
                                    In    0.7700000 Isotope115

                          Files used for pseudopotentials:
                                    P 3|1.8|4|4|5|30:31:32
                                    In 3|2.5|2.5|1.5|7|8|9|50:51:42U2.2U2.2

                           -------------------------------
                              k-Points For BZ Sampling
                           -------------------------------
                       MP grid size for SCF calculation is  4  4  4
                            with an offset of   0.125  0.125  0.125
                       Number of kpoints used =            36

                           -------------------------------
                               Symmetry and Constraints
                           -------------------------------

                      Maximum deviation from symmetry =  0.00000         ANG

                      Number of symmetry operations   =           1
                      Number of ionic constraints     =           3
                      Point group of crystal =     1: C1, 1, 1
                      Space group of crystal =   160: R3m, R 3 -2"

             Set iprint > 1 for details on symmetry rotations/translations

                         Centre of mass is constrained
             Set iprint > 1 for details of linear ionic constraints

                         Number of cell constraints= 0
                         Cell constraints are:  1 2 3 4 5 6

                         External pressure/stress (GPa)
                          0.00000   0.00000   0.00000
                                    0.00000   0.00000
                                              0.00000
 
+---------------- MEMORY AND SCRATCH DISK ESTIMATES PER PROCESS --------------+
|                                                     Memory          Disk    |
| Baseline code, static data and system overhead      368.0 MB         0.0 MB |
| BLAS internal memory storage                          0.0 MB         0.0 MB |
| Model and support data                             4331.9 MB         0.0 MB |
| Electronic energy minimisation requirements        1349.7 MB         0.0 MB |
| Force calculation requirements                      127.4 MB         0.0 MB |
|                                               ----------------------------- |
| Approx. total storage required per process         6049.6 MB         0.0 MB |
|                                                                             |
| Requirements will fluctuate during execution and may exceed these estimates |
+-----------------------------------------------------------------------------+
Calculating approximate eigenstates for fixed initial Hamiltonian
Cut-off for approx. calculation is   89.988 eV
Improving approx. states at cut-off of  450.000 eV
Resetting cut-off to  900.000 eV
Calculating total energy with cut-off of  900.000 eV.
------------------------------------------------------------------------ <-- SCF
SCF loop      Energy           Fermi           Energy gain       Timer   <-- SCF
                               energy          per atom          (sec)   <-- SCF
------------------------------------------------------------------------ <-- SCF
Initial  -6.48019804E+004  0.00000000E+000                       451.50  <-- SCF
      1  -6.45480217E+004  3.89612858E+000  -3.90705683E+000     914.08  <-- SCF
      2  -6.45483496E+004  3.89009203E+000   5.04348814E-003    1238.12  <-- SCF
      3  -6.46180302E+004  4.06532002E+000   1.07200981E+000    1586.06  <-- SCF
      4  -6.46303921E+004  4.13024034E+000   1.90183284E-001    2085.41  <-- SCF
      5  -6.46367181E+004  4.30052366E+000   9.73236119E-002    2439.98  <-- SCF
      6  -6.46257066E+004  4.53664445E+000  -1.69408971E-001    2797.39  <-- SCF
      7  -6.46243760E+004  4.57933707E+000  -2.04699605E-002    3162.60  <-- SCF
      8  -6.46244928E+004  4.60883261E+000   1.79718722E-003    3538.57  <-- SCF
      9  -6.46253154E+004  4.62564526E+000   1.26555212E-002    3899.62  <-- SCF
     10  -6.46257151E+004  4.84007343E+000   6.14849801E-003    4260.63  <-- SCF
     11  -6.46257192E+004  4.83468111E+000   6.26643865E-005    4633.84  <-- SCF
     12  -6.46257230E+004  4.83312675E+000   5.91872119E-005    4995.82  <-- SCF
     13  -6.46257239E+004  4.83055906E+000   1.31655802E-005    5370.41  <-- SCF
     14  -6.46257240E+004  4.82958337E+000   2.41815600E-006    5743.60  <-- SCF
     15  -6.46257242E+004  4.82918634E+000   2.40830300E-006    6099.38  <-- SCF
     16  -6.46257242E+004  4.82883772E+000   4.60122189E-007    6434.65  <-- SCF
     17  -6.46257242E+004  4.82859727E+000   1.58304304E-007    6750.20  <-- SCF
     18  -6.46257242E+004  4.82857049E+000   5.02316858E-008    7018.50  <-- SCF
     19  -6.46257242E+004  4.82857380E+000   2.90421150E-008    7287.93  <-- SCF
     20  -6.46257242E+004  4.82858589E+000   6.44415771E-009    7553.17  <-- SCF
     21  -6.46257242E+004  4.82859139E+000   9.82139132E-010    7806.08  <-- SCF
------------------------------------------------------------------------ <-- SCF
 
Integrated Spin Density     =   -0.124191E-03 hbar/2
Integrated |Spin Density|   =    0.581130E-03 hbar/2
 
Final energy, E             =  -64625.60344865     eV
Final free energy (E-TS)    =  -64625.72422557     eV
(energies not corrected for finite basis set)
 
NB est. 0K energy (E-0.5TS)      =  -64625.66383711     eV
 

 ************************** Forces **************************
 *                                                          *
 *               Cartesian components (eV/A)                *
 * -------------------------------------------------------- *
 *                         x            y            z      *
 *                                                          *
 * P               1     -0.03100      0.03101     -0.03951 *
 * P               2     -0.07428      0.04380      0.04530 *
 * P               3     -0.03159     -0.03813      0.03372 *
 * P               4      0.00930     -0.00521     -0.00893 *
 * P               5     -0.04385      0.04385      0.07528 *
 * P               6     -0.00395      0.00778     -0.01171 *
 * P               7     -0.01244      0.01583     -0.00893 *
 * P               8     -0.04554     -0.03600      0.04706 *
 * P               9     -0.01194     -0.00931      0.01741 *
 * P              10     -0.00298     -0.01100      0.01034 *
 * P              11     -0.04380      0.07429      0.04530 *
 * P              12     -0.04520      0.04520     -0.03837 *
 * P              13     -0.00765     -0.01026      0.00354 *
 * P              14      0.01841     -0.02656     -0.02517 *
 * P              15     -0.00777      0.00394     -0.01171 *
 * P              16      0.15778     -0.15779     -0.16264 *
 * P              17      0.00931      0.01195      0.01741 *
 * P              18      0.03812      0.03159      0.03372 *
 * P              19      0.00870      0.01596      0.01477 *
 * P              20     -0.00876      0.00877      0.00399 *
 * P              21      0.01026      0.00765      0.00354 *
 * P              22     -0.01582      0.01245     -0.00893 *
 * P              23     -0.00077      0.00831     -0.00076 *
 * P              24      0.00571     -0.00571     -0.00578 *
 * P              25     -0.00023      0.00024      0.01122 *
 * P              26     -0.01594     -0.00869      0.01477 *
 * P              27      0.01100      0.00298      0.01034 *
 * P              28      0.00522     -0.00930     -0.00893 *
 * P              29      0.02669     -0.02670     -0.01694 *
 * P              30     -0.00831      0.00077     -0.00076 *
 * P              31      0.02655     -0.01841     -0.02517 *
 * P              32      0.03601      0.04555      0.04706 *
 * In              1      0.07254      0.07838      0.07793 *
 * In              2     -0.07838      0.07837     -0.07283 *
 * In              3     -0.04334      0.04334      0.04294 *
 * In              4     -0.07839     -0.07254      0.07794 *
 * In              5     -0.02534     -0.01422      0.02118 *
 * In              6      0.03834     -0.03833     -0.06492 *
 * In              7      0.02089     -0.02090     -0.01260 *
 * In              8      0.01421      0.02533      0.02118 *
 * In              9     -0.02534      0.02145     -0.01453 *
 * In             10      0.01422      0.02147      0.02499 *
 * In             11      0.02087     -0.01228     -0.02117 *
 * In             12      0.03832     -0.06467     -0.03870 *
 * In             13      0.04782      0.02698      0.02656 *
 * In             14     -0.01364      0.01469      0.02380 *
 * In             15     -0.00776     -0.00529     -0.00569 *
 * In             16     -0.01368      0.02423      0.01439 *
 * In             17      0.06467     -0.03832     -0.03870 *
 * In             18     -0.02147     -0.01422      0.02499 *
 * In             19      0.01227     -0.02088     -0.02117 *
 * In             20     -0.02145      0.02533     -0.01453 *
 * In             21     -0.02423      0.01367      0.01438 *
 * In             22     -0.01470      0.01364      0.02381 *
 * In             23      0.00528      0.00776     -0.00569 *
 * In             24     -0.02698     -0.04783      0.02656 *
 * In             25     -0.02425      0.01470      0.01333 *
 * In             26     -0.02695      0.02695     -0.04813 *
 * In             27      0.00528     -0.00528      0.00742 *
 * In             28     -0.01471      0.02426      0.01333 *
 * In             29     -0.02584      0.01062      0.01021 *
 * In             30     -0.01060      0.01060      0.02549 *
 * In             31      0.01520     -0.01519     -0.01561 *
 * In             32     -0.01062      0.02583      0.01021 *
 * In             33      0.18654     -0.18654     -0.18691 *
 *                                                          *
 ************************************************************

 Pseudo atomic calculation performed for P 3s2 3p3

 Converged in 23 iterations to a total energy of -208.0292 eV

 Pseudo atomic calculation performed for In 4d10 5s2 5p1

 Converged in 42 iterations to a total energy of -1747.4501 eV
Charge spilling parameter for spin component 1 = 0.28%
Charge spilling parameter for spin component 2 = 0.28%

                   Orbital Populations                  
  ---------------------------------------------------------------
     Ion    Atom   Orbital              Up        Down      Spin
  ---------------------------------------------------------------
      P     1      S                    0.869     0.869     0.000
      P     1      Px                   0.655     0.655     0.000
      P     1      Py                   0.655     0.655     0.000
      P     1      Pz                   0.656     0.656    -0.000
      P     2      S                    0.887     0.887     0.000
      P     2      Px                   0.639     0.639    -0.000
      P     2      Py                   0.643     0.643    -0.000
      P     2      Pz                   0.643     0.644    -0.000
      P     3      S                    0.869     0.869     0.000
      P     3      Px                   0.655     0.655     0.000
      P     3      Py                   0.656     0.656    -0.000
      P     3      Pz                   0.655     0.655    -0.000
      P     4      S                    0.867     0.867     0.000
      P     4      Px                   0.654     0.654    -0.000
      P     4      Py                   0.658     0.658    -0.000
      P     4      Pz                   0.658     0.658    -0.000
      P     5      S                    0.887     0.887     0.000
      P     5      Px                   0.643     0.644    -0.000
      P     5      Py                   0.643     0.643    -0.000
      P     5      Pz                   0.639     0.639     0.000
      P     6      S                    0.869     0.869     0.000
      P     6      Px                   0.653     0.653     0.000
      P     6      Py                   0.657     0.657    -0.000
      P     6      Pz                   0.657     0.657     0.000
      P     7      S                    0.867     0.867     0.000
      P     7      Px                   0.653     0.653    -0.000
      P     7      Py                   0.659     0.659     0.000
      P     7      Pz                   0.658     0.658    -0.000
      P     8      S                    0.869     0.869    -0.000
      P     8      Px                   0.655     0.655    -0.000
      P     8      Py                   0.657     0.657    -0.000
      P     8      Pz                   0.655     0.655    -0.000
      P     9      S                    0.867     0.867     0.000
      P     9      Px                   0.653     0.653     0.000
      P     9      Py                   0.658     0.658    -0.000
      P     9      Pz                   0.659     0.659    -0.000
      P    10      S                    0.869     0.869     0.000
      P    10      Px                   0.653     0.653     0.000
      P    10      Py                   0.657     0.657    -0.000
      P    10      Pz                   0.657     0.657     0.000
      P    11      S                    0.887     0.887     0.000
      P    11      Px                   0.643     0.644    -0.000
      P    11      Py                   0.639     0.639     0.000
      P    11      Pz                   0.643     0.643    -0.000
      P    12      S                    0.869     0.869    -0.000
      P    12      Px                   0.655     0.655     0.000
      P    12      Py                   0.655     0.655     0.000
      P    12      Pz                   0.657     0.657    -0.000
      P    13      S                    0.869     0.869     0.000
      P    13      Px                   0.657     0.657    -0.000
      P    13      Py                   0.657     0.657    -0.000
      P    13      Pz                   0.653     0.653     0.000
      P    14      S                    0.867     0.867     0.000
      P    14      Px                   0.656     0.656    -0.000
      P    14      Py                   0.656     0.656    -0.000
      P    14      Pz                   0.656     0.656    -0.000
      P    15      S                    0.869     0.869     0.000
      P    15      Px                   0.657     0.657     0.000
      P    15      Py                   0.653     0.653     0.000
      P    15      Pz                   0.657     0.657     0.000
      P    16      S                    0.881     0.881    -0.000
      P    16      Px                   0.647     0.647    -0.000
      P    16      Py                   0.647     0.647    -0.000
      P    16      Pz                   0.647     0.647     0.000
      P    17      S                    0.867     0.867    -0.000
      P    17      Px                   0.658     0.658    -0.000
      P    17      Py                   0.653     0.653    -0.000
      P    17      Pz                   0.659     0.659    -0.000
      P    18      S                    0.869     0.869     0.000
      P    18      Px                   0.656     0.656    -0.000
      P    18      Py                   0.655     0.655     0.000
      P    18      Pz                   0.655     0.655    -0.000
      P    19      S                    0.867     0.867    -0.000
      P    19      Px                   0.658     0.658    -0.000
      P    19      Py                   0.659     0.659    -0.000
      P    19      Pz                   0.653     0.653    -0.000
      P    20      S                    0.868     0.868    -0.000
      P    20      Px                   0.656     0.656     0.000
      P    20      Py                   0.656     0.656     0.000
      P    20      Pz                   0.656     0.656     0.000
      P    21      S                    0.869     0.869     0.000
      P    21      Px                   0.657     0.657    -0.000
      P    21      Py                   0.657     0.657    -0.000
      P    21      Pz                   0.653     0.653     0.000
      P    22      S                    0.867     0.867    -0.000
      P    22      Px                   0.659     0.659    -0.000
      P    22      Py                   0.653     0.653     0.000
      P    22      Pz                   0.658     0.658    -0.000
      P    23      S                    0.868     0.868    -0.000
      P    23      Px                   0.657     0.657    -0.000
      P    23      Py                   0.655     0.655    -0.000
      P    23      Pz                   0.657     0.657     0.000
      P    24      S                    0.867     0.867    -0.000
      P    24      Px                   0.658     0.658    -0.000
      P    24      Py                   0.658     0.658    -0.000
      P    24      Pz                   0.654     0.654     0.000
      P    25      S                    0.868     0.868     0.000
      P    25      Px                   0.657     0.657    -0.000
      P    25      Py                   0.657     0.657    -0.000
      P    25      Pz                   0.655     0.655    -0.000
      P    26      S                    0.867     0.867    -0.000
      P    26      Px                   0.659     0.659    -0.000
      P    26      Py                   0.658     0.658    -0.000
      P    26      Pz                   0.653     0.653     0.000
      P    27      S                    0.869     0.869     0.000
      P    27      Px                   0.657     0.657    -0.000
      P    27      Py                   0.653     0.653     0.000
      P    27      Pz                   0.657     0.657     0.000
      P    28      S                    0.867     0.867    -0.000
      P    28      Px                   0.658     0.658    -0.000
      P    28      Py                   0.654     0.654     0.000
      P    28      Pz                   0.658     0.658     0.000
      P    29      S                    0.867     0.867     0.000
      P    29      Px                   0.656     0.656    -0.000
      P    29      Py                   0.656     0.656    -0.000
      P    29      Pz                   0.656     0.656     0.000
      P    30      S                    0.868     0.868     0.000
      P    30      Px                   0.655     0.655    -0.000
      P    30      Py                   0.657     0.657    -0.000
      P    30      Pz                   0.657     0.657     0.000
      P    31      S                    0.867     0.867    -0.000
      P    31      Px                   0.656     0.656    -0.000
      P    31      Py                   0.656     0.656     0.000
      P    31      Pz                   0.656     0.656    -0.000
      P    32      S                    0.869     0.869    -0.000
      P    32      Px                   0.657     0.657     0.000
      P    32      Py                   0.655     0.655     0.000
      P    32      Pz                   0.655     0.655     0.000
     In     1      Dzz                  1.000     1.000     0.000
     In     1      Dzy                  0.998     0.998     0.000
     In     1      Dzx                  0.999     0.999     0.000
     In     1      Dxx-yy               0.999     0.999    -0.000
     In     1      Dxy                  0.999     0.999     0.000
     In     1      S                    0.715     0.715    -0.000
     In     1      Px                   0.218     0.218     0.000
     In     1      Py                   0.245     0.245    -0.000
     In     1      Pz                   0.245     0.245    -0.000
     In     1      S                   -0.227    -0.227     0.000
     In     2      Dzz                  0.999     0.999    -0.000
     In     2      Dzy                  0.999     0.999     0.000
     In     2      Dzx                  0.999     0.999     0.000
     In     2      Dxx-yy               1.000     1.000     0.000
     In     2      Dxy                  0.998     0.998     0.000
     In     2      S                    0.715     0.715    -0.000
     In     2      Px                   0.245     0.245    -0.000
     In     2      Py                   0.245     0.245    -0.000
     In     2      Pz                   0.218     0.218     0.000
     In     2      S                   -0.227    -0.227     0.000
     In     3      Dzz                  1.000     1.000    -0.000
     In     3      Dzy                  0.998     0.998     0.000
     In     3      Dzx                  0.998     0.998     0.000
     In     3      Dxx-yy               1.000     1.000     0.000
     In     3      Dxy                  0.998     0.998     0.000
     In     3      S                    0.715     0.715    -0.000
     In     3      Px                   0.239     0.239     0.000
     In     3      Py                   0.239     0.239    -0.000
     In     3      Pz                   0.239     0.239    -0.000
     In     3      S                   -0.274    -0.274     0.000
     In     4      Dzz                  1.000     1.000     0.000
     In     4      Dzy                  0.999     0.999     0.000
     In     4      Dzx                  0.998     0.998     0.000
     In     4      Dxx-yy               0.999     0.999     0.000
     In     4      Dxy                  0.999     0.999     0.000
     In     4      S                    0.715     0.715     0.000
     In     4      Px                   0.245     0.245    -0.000
     In     4      Py                   0.218     0.218     0.000
     In     4      Pz                   0.245     0.245     0.000
     In     4      S                   -0.227    -0.227     0.000
     In     5      Dzz                  1.000     1.000     0.000
     In     5      Dzy                  0.998     0.998     0.000
     In     5      Dzx                  0.998     0.998     0.000
     In     5      Dxx-yy               1.000     1.000     0.000
     In     5      Dxy                  0.998     0.998    -0.000
     In     5      S                    0.714     0.714    -0.000
     In     5      Px                   0.241     0.241     0.000
     In     5      Py                   0.243     0.243     0.000
     In     5      Pz                   0.239     0.239    -0.000
     In     5      S                   -0.268    -0.268     0.000
     In     6      Dzz                  0.999     0.999    -0.000
     In     6      Dzy                  0.999     0.999     0.000
     In     6      Dzx                  0.999     0.999     0.000
     In     6      Dxx-yy               1.000     1.000    -0.000
     In     6      Dxy                  0.999     0.998     0.000
     In     6      S                    0.712     0.712    -0.000
     In     6      Px                   0.243     0.243    -0.000
     In     6      Py                   0.243     0.243    -0.000
     In     6      Pz                   0.222     0.222    -0.000
     In     6      S                   -0.236    -0.236     0.000
     In     7      Dzz                  0.999     0.999     0.000
     In     7      Dzy                  0.998     0.998     0.000
     In     7      Dzx                  0.998     0.998     0.000
     In     7      Dxx-yy               0.999     0.999     0.000
     In     7      Dxy                  0.998     0.998    -0.000
     In     7      S                    0.736     0.736     0.000
     In     7      Px                   0.246     0.246     0.000
     In     7      Py                   0.246     0.246    -0.000
     In     7      Pz                   0.243     0.243    -0.000
     In     7      S                   -0.278    -0.278    -0.000
     In     8      Dzz                  1.000     1.000     0.000
     In     8      Dzy                  0.998     0.998     0.000
     In     8      Dzx                  0.998     0.998     0.000
     In     8      Dxx-yy               1.000     1.000     0.000
     In     8      Dxy                  0.998     0.998     0.000
     In     8      S                    0.714     0.714    -0.000
     In     8      Px                   0.243     0.243    -0.000
     In     8      Py                   0.241     0.241    -0.000
     In     8      Pz                   0.239     0.239    -0.000
     In     8      S                   -0.268    -0.268     0.000
     In     9      Dzz                  1.000     1.000     0.000
     In     9      Dzy                  0.998     0.998     0.000
     In     9      Dzx                  0.998     0.998    -0.000
     In     9      Dxx-yy               1.000     1.000     0.000
     In     9      Dxy                  0.998     0.998     0.000
     In     9      S                    0.714     0.714    -0.000
     In     9      Px                   0.241     0.241     0.000
     In     9      Py                   0.239     0.239    -0.000
     In     9      Pz                   0.243     0.243     0.000
     In     9      S                   -0.268    -0.268     0.000
     In    10      Dzz                  1.000     1.000    -0.000
     In    10      Dzy                  0.998     0.998     0.000
     In    10      Dzx                  0.998     0.998     0.000
     In    10      Dxx-yy               1.000     1.000     0.000
     In    10      Dxy                  0.998     0.998     0.000
     In    10      S                    0.714     0.714    -0.000
     In    10      Px                   0.243     0.243    -0.000
     In    10      Py                   0.239     0.239    -0.000
     In    10      Pz                   0.241     0.241    -0.000
     In    10      S                   -0.268    -0.268     0.000
     In    11      Dzz                  0.999     0.999     0.000
     In    11      Dzy                  0.998     0.998     0.000
     In    11      Dzx                  0.998     0.998    -0.000
     In    11      Dxx-yy               0.999     0.999     0.000
     In    11      Dxy                  0.998     0.998     0.000
     In    11      S                    0.736     0.736     0.000
     In    11      Px                   0.246     0.246     0.000
     In    11      Py                   0.243     0.243    -0.000
     In    11      Pz                   0.246     0.246     0.000
     In    11      S                   -0.278    -0.278    -0.000
     In    12      Dzz                  1.000     1.000     0.000
     In    12      Dzy                  0.999     0.999     0.000
     In    12      Dzx                  0.999     0.999     0.000
     In    12      Dxx-yy               0.999     0.999     0.000
     In    12      Dxy                  0.999     0.999     0.000
     In    12      S                    0.712     0.712     0.000
     In    12      Px                   0.243     0.243     0.000
     In    12      Py                   0.222     0.222     0.000
     In    12      Pz                   0.243     0.243    -0.000
     In    12      S                   -0.236    -0.236     0.000
     In    13      Dzz                  1.000     1.000     0.000
     In    13      Dzy                  0.998     0.998    -0.000
     In    13      Dzx                  0.998     0.998    -0.000
     In    13      Dxx-yy               1.000     1.000     0.000
     In    13      Dxy                  0.998     0.998     0.000
     In    13      S                    0.712     0.712    -0.000
     In    13      Px                   0.245     0.245    -0.000
     In    13      Py                   0.242     0.242    -0.000
     In    13      Pz                   0.242     0.242    -0.000
     In    13      S                   -0.264    -0.264    -0.000
     In    14      Dzz                  1.000     1.000     0.000
     In    14      Dzy                  0.998     0.998     0.000
     In    14      Dzx                  0.998     0.998     0.000
     In    14      Dxx-yy               1.000     1.000     0.000
     In    14      Dxy                  0.998     0.998     0.000
     In    14      S                    0.715     0.715    -0.000
     In    14      Px                   0.245     0.245     0.000
     In    14      Py                   0.240     0.240    -0.000
     In    14      Pz                   0.239     0.239    -0.000
     In    14      S                   -0.266    -0.266     0.000
     In    15      Dzz                  1.000     1.000    -0.000
     In    15      Dzy                  0.998     0.998     0.000
     In    15      Dzx                  0.998     0.998    -0.000
     In    15      Dxx-yy               1.000     1.000    -0.000
     In    15      Dxy                  0.998     0.998     0.000
     In    15      S                    0.715     0.715    -0.000
     In    15      Px                   0.241     0.241     0.000
     In    15      Py                   0.240     0.240     0.000
     In    15      Pz                   0.240     0.240    -0.000
     In    15      S                   -0.270    -0.270     0.000
     In    16      Dzz                  1.000     1.000     0.000
     In    16      Dzy                  0.998     0.998    -0.000
     In    16      Dzx                  0.998     0.998     0.000
     In    16      Dxx-yy               1.000     1.000     0.000
     In    16      Dxy                  0.998     0.998    -0.000
     In    16      S                    0.715     0.715    -0.000
     In    16      Px                   0.245     0.245    -0.000
     In    16      Py                   0.239     0.239    -0.000
     In    16      Pz                   0.240     0.240    -0.000
     In    16      S                   -0.266    -0.266     0.000
     In    17      Dzz                  1.000     1.000    -0.000
     In    17      Dzy                  0.998     0.998    -0.000
     In    17      Dzx                  0.999     0.999     0.000
     In    17      Dxx-yy               0.999     0.999     0.000
     In    17      Dxy                  0.999     0.999     0.000
     In    17      S                    0.712     0.712    -0.000
     In    17      Px                   0.222     0.222     0.000
     In    17      Py                   0.243     0.243    -0.000
     In    17      Pz                   0.243     0.243    -0.000
     In    17      S                   -0.236    -0.236     0.000
     In    18      Dzz                  1.000     1.000     0.000
     In    18      Dzy                  0.998     0.998     0.000
     In    18      Dzx                  0.998     0.998     0.000
     In    18      Dxx-yy               1.000     1.000     0.000
     In    18      Dxy                  0.998     0.998     0.000
     In    18      S                    0.714     0.714    -0.000
     In    18      Px                   0.239     0.239     0.000
     In    18      Py                   0.243     0.243    -0.000
     In    18      Pz                   0.241     0.241     0.000
     In    18      S                   -0.268    -0.268    -0.000
     In    19      Dzz                  0.999     0.999     0.000
     In    19      Dzy                  0.998     0.998    -0.000
     In    19      Dzx                  0.998     0.998     0.000
     In    19      Dxx-yy               0.999     0.999     0.000
     In    19      Dxy                  0.998     0.998     0.000
     In    19      S                    0.736     0.736     0.000
     In    19      Px                   0.243     0.243    -0.000
     In    19      Py                   0.246     0.246    -0.000
     In    19      Pz                   0.246     0.246     0.000
     In    19      S                   -0.278    -0.278    -0.000
     In    20      Dzz                  1.000     1.000     0.000
     In    20      Dzy                  0.998     0.998     0.000
     In    20      Dzx                  0.998     0.998     0.000
     In    20      Dxx-yy               1.000     1.000     0.000
     In    20      Dxy                  0.998     0.998     0.000
     In    20      S                    0.714     0.714    -0.000
     In    20      Px                   0.239     0.239    -0.000
     In    20      Py                   0.241     0.241     0.000
     In    20      Pz                   0.243     0.243    -0.000
     In    20      S                   -0.268    -0.268     0.000
     In    21      Dzz                  1.000     1.000     0.000
     In    21      Dzy                  0.998     0.998     0.000
     In    21      Dzx                  0.998     0.998    -0.000
     In    21      Dxx-yy               1.000     1.000     0.000
     In    21      Dxy                  0.998     0.998    -0.000
     In    21      S                    0.715     0.715    -0.000
     In    21      Px                   0.239     0.239     0.000
     In    21      Py                   0.245     0.245     0.000
     In    21      Pz                   0.240     0.240    -0.000
     In    21      S                   -0.266    -0.266     0.000
     In    22      Dzz                  1.000     1.000    -0.000
     In    22      Dzy                  0.998     0.998     0.000
     In    22      Dzx                  0.998     0.998     0.000
     In    22      Dxx-yy               1.000     1.000     0.000
     In    22      Dxy                  0.998     0.998     0.000
     In    22      S                    0.715     0.715    -0.000
     In    22      Px                   0.240     0.240    -0.000
     In    22      Py                   0.245     0.245     0.000
     In    22      Pz                   0.239     0.239    -0.000
     In    22      S                   -0.266    -0.266     0.000
     In    23      Dzz                  1.000     1.000     0.000
     In    23      Dzy                  0.998     0.998     0.000
     In    23      Dzx                  0.998     0.998     0.000
     In    23      Dxx-yy               1.000     1.000    -0.000
     In    23      Dxy                  0.998     0.998     0.000
     In    23      S                    0.715     0.715     0.000
     In    23      Px                   0.240     0.240     0.000
     In    23      Py                   0.241     0.241    -0.000
     In    23      Pz                   0.240     0.240    -0.000
     In    23      S                   -0.270    -0.270     0.000
     In    24      Dzz                  1.000     1.000     0.000
     In    24      Dzy                  0.998     0.998    -0.000
     In    24      Dzx                  0.998     0.998     0.000
     In    24      Dxx-yy               1.000     1.000     0.000
     In    24      Dxy                  0.998     0.998     0.000
     In    24      S                    0.712     0.712     0.000
     In    24      Px                   0.242     0.242    -0.000
     In    24      Py                   0.245     0.245    -0.000
     In    24      Pz                   0.242     0.242    -0.000
     In    24      S                   -0.264    -0.264    -0.000
     In    25      Dzz                  1.000     1.000     0.000
     In    25      Dzy                  0.998     0.998     0.000
     In    25      Dzx                  0.998     0.998    -0.000
     In    25      Dxx-yy               1.000     1.000     0.000
     In    25      Dxy                  0.998     0.998     0.000
     In    25      S                    0.715     0.715    -0.000
     In    25      Px                   0.239     0.239     0.000
     In    25      Py                   0.240     0.240    -0.000
     In    25      Pz                   0.245     0.245     0.000
     In    25      S                   -0.266    -0.266     0.000
     In    26      Dzz                  1.000     1.000     0.000
     In    26      Dzy                  0.998     0.998     0.000
     In    26      Dzx                  0.998     0.998    -0.000
     In    26      Dxx-yy               1.000     1.000     0.000
     In    26      Dxy                  0.998     0.998    -0.000
     In    26      S                    0.712     0.712    -0.000
     In    26      Px                   0.242     0.242    -0.000
     In    26      Py                   0.242     0.242    -0.000
     In    26      Pz                   0.245     0.245    -0.000
     In    26      S                   -0.264    -0.264     0.000
     In    27      Dzz                  1.000     1.000     0.000
     In    27      Dzy                  0.998     0.998     0.000
     In    27      Dzx                  0.998     0.998     0.000
     In    27      Dxx-yy               1.000     1.000     0.000
     In    27      Dxy                  0.998     0.998     0.000
     In    27      S                    0.715     0.715    -0.000
     In    27      Px                   0.240     0.240     0.000
     In    27      Py                   0.240     0.240     0.000
     In    27      Pz                   0.241     0.241     0.000
     In    27      S                   -0.270    -0.270     0.000
     In    28      Dzz                  1.000     1.000    -0.000
     In    28      Dzy                  0.998     0.998    -0.000
     In    28      Dzx                  0.998     0.998    -0.000
     In    28      Dxx-yy               1.000     1.000     0.000
     In    28      Dxy                  0.998     0.998     0.000
     In    28      S                    0.715     0.715    -0.000
     In    28      Px                   0.240     0.240    -0.000
     In    28      Py                   0.239     0.239     0.000
     In    28      Pz                   0.245     0.245    -0.000
     In    28      S                   -0.266    -0.266     0.000
     In    29      Dzz                  1.000     1.000     0.000
     In    29      Dzy                  0.998     0.998    -0.000
     In    29      Dzx                  0.998     0.998    -0.000
     In    29      Dxx-yy               1.000     1.000     0.000
     In    29      Dxy                  0.998     0.998    -0.000
     In    29      S                    0.712     0.712     0.000
     In    29      Px                   0.244     0.244    -0.000
     In    29      Py                   0.241     0.241    -0.000
     In    29      Pz                   0.241     0.241    -0.000
     In    29      S                   -0.265    -0.265    -0.000
     In    30      Dzz                  1.000     1.000     0.000
     In    30      Dzy                  0.998     0.998    -0.000
     In    30      Dzx                  0.998     0.998    -0.000
     In    30      Dxx-yy               1.000     1.000     0.000
     In    30      Dxy                  0.998     0.998    -0.000
     In    30      S                    0.712     0.712    -0.000
     In    30      Px                   0.241     0.241    -0.000
     In    30      Py                   0.241     0.241    -0.000
     In    30      Pz                   0.244     0.244    -0.000
     In    30      S                   -0.265    -0.265     0.000
     In    31      Dzz                  1.000     1.000     0.000
     In    31      Dzy                  0.998     0.998    -0.000
     In    31      Dzx                  0.998     0.998    -0.000
     In    31      Dxx-yy               1.000     1.000    -0.000
     In    31      Dxy                  0.998     0.998    -0.000
     In    31      S                    0.747     0.746     0.000
     In    31      Px                   0.242     0.242    -0.000
     In    31      Py                   0.242     0.242    -0.000
     In    31      Pz                   0.242     0.242    -0.000
     In    31      S                   -0.275    -0.275     0.000
     In    32      Dzz                  1.000     1.000     0.000
     In    32      Dzy                  0.998     0.998    -0.000
     In    32      Dzx                  0.998     0.998    -0.000
     In    32      Dxx-yy               1.000     1.000     0.000
     In    32      Dxy                  0.998     0.998    -0.000
     In    32      S                    0.712     0.712    -0.000
     In    32      Px                   0.241     0.241     0.000
     In    32      Py                   0.244     0.244    -0.000
     In    32      Pz                   0.241     0.241     0.000
     In    32      S                   -0.265    -0.265    -0.000
     In    33      Dzz                  0.999     0.999    -0.000
     In    33      Dzy                  0.998     0.998     0.000
     In    33      Dzx                  0.998     0.998     0.000
     In    33      Dxx-yy               0.999     0.999    -0.000
     In    33      Dxy                  0.998     0.998     0.000
     In    33      S                    0.615     0.615     0.000
     In    33      Px                   0.226     0.226    -0.000
     In    33      Py                   0.226     0.226    -0.000
     In    33      Pz                   0.226     0.226    -0.000
     In    33      S                    0.064     0.064    -0.000
  ---------------------------------------------------------------
                           Total:     294.500   294.500     0.000
  ---------------------------------------------------------------

     Atomic Populations (Mulliken)
     -----------------------------
Species          Ion Spin      s       p       d       f      Total   Charge(e)   Spin(hbar/2)
==============================================================================================
  P               1   up:     0.869   1.966   0.000   0.000   2.835    -0.669        0.000
                  1   dn:     0.869   1.966   0.000   0.000   2.835
  P               2   up:     0.887   1.926   0.000   0.000   2.813    -0.627       -0.000
                  2   dn:     0.887   1.926   0.000   0.000   2.813
  P               3   up:     0.869   1.966   0.000   0.000   2.835    -0.669       -0.000
                  3   dn:     0.869   1.966   0.000   0.000   2.835
  P               4   up:     0.867   1.969   0.000   0.000   2.836    -0.672       -0.000
                  4   dn:     0.867   1.969   0.000   0.000   2.836
  P               5   up:     0.887   1.926   0.000   0.000   2.813    -0.627       -0.000
                  5   dn:     0.887   1.926   0.000   0.000   2.813
  P               6   up:     0.869   1.967   0.000   0.000   2.836    -0.671        0.000
                  6   dn:     0.869   1.967   0.000   0.000   2.836
  P               7   up:     0.867   1.969   0.000   0.000   2.836    -0.672       -0.000
                  7   dn:     0.867   1.969   0.000   0.000   2.836
  P               8   up:     0.869   1.966   0.000   0.000   2.835    -0.671       -0.000
                  8   dn:     0.869   1.966   0.000   0.000   2.835
  P               9   up:     0.867   1.969   0.000   0.000   2.836    -0.672       -0.000
                  9   dn:     0.867   1.969   0.000   0.000   2.836
  P              10   up:     0.869   1.967   0.000   0.000   2.836    -0.671        0.000
                 10   dn:     0.869   1.967   0.000   0.000   2.836
  P              11   up:     0.887   1.926   0.000   0.000   2.813    -0.627       -0.000
                 11   dn:     0.887   1.926   0.000   0.000   2.813
  P              12   up:     0.869   1.966   0.000   0.000   2.835    -0.671       -0.000
                 12   dn:     0.869   1.966   0.000   0.000   2.835
  P              13   up:     0.869   1.967   0.000   0.000   2.836    -0.671        0.000
                 13   dn:     0.869   1.967   0.000   0.000   2.836
  P              14   up:     0.867   1.969   0.000   0.000   2.836    -0.672       -0.000
                 14   dn:     0.867   1.969   0.000   0.000   2.836
  P              15   up:     0.869   1.967   0.000   0.000   2.836    -0.671        0.000
                 15   dn:     0.869   1.967   0.000   0.000   2.836
  P              16   up:     0.881   1.940   0.000   0.000   2.821    -0.641       -0.000
                 16   dn:     0.881   1.940   0.000   0.000   2.821
  P              17   up:     0.867   1.969   0.000   0.000   2.836    -0.672       -0.000
                 17   dn:     0.867   1.969   0.000   0.000   2.836
  P              18   up:     0.869   1.966   0.000   0.000   2.835    -0.669        0.000
                 18   dn:     0.869   1.966   0.000   0.000   2.835
  P              19   up:     0.867   1.969   0.000   0.000   2.836    -0.672       -0.000
                 19   dn:     0.867   1.969   0.000   0.000   2.836
  P              20   up:     0.868   1.967   0.000   0.000   2.835    -0.670        0.000
                 20   dn:     0.868   1.967   0.000   0.000   2.835
  P              21   up:     0.869   1.967   0.000   0.000   2.836    -0.671       -0.000
                 21   dn:     0.869   1.967   0.000   0.000   2.836
  P              22   up:     0.867   1.969   0.000   0.000   2.836    -0.672       -0.000
                 22   dn:     0.867   1.969   0.000   0.000   2.836
  P              23   up:     0.868   1.968   0.000   0.000   2.836    -0.671       -0.000
                 23   dn:     0.868   1.968   0.000   0.000   2.836
  P              24   up:     0.867   1.969   0.000   0.000   2.836    -0.672       -0.000
                 24   dn:     0.867   1.969   0.000   0.000   2.836
  P              25   up:     0.868   1.968   0.000   0.000   2.836    -0.671       -0.000
                 25   dn:     0.868   1.968   0.000   0.000   2.836
  P              26   up:     0.867   1.969   0.000   0.000   2.836    -0.672       -0.000
                 26   dn:     0.867   1.969   0.000   0.000   2.836
  P              27   up:     0.869   1.967   0.000   0.000   2.836    -0.671        0.000
                 27   dn:     0.869   1.967   0.000   0.000   2.836
  P              28   up:     0.867   1.969   0.000   0.000   2.836    -0.672        0.000
                 28   dn:     0.867   1.969   0.000   0.000   2.836
  P              29   up:     0.867   1.969   0.000   0.000   2.836    -0.672       -0.000
                 29   dn:     0.867   1.969   0.000   0.000   2.836
  P              30   up:     0.868   1.968   0.000   0.000   2.836    -0.671       -0.000
                 30   dn:     0.868   1.968   0.000   0.000   2.836
  P              31   up:     0.867   1.969   0.000   0.000   2.836    -0.672       -0.000
                 31   dn:     0.867   1.969   0.000   0.000   2.836
  P              32   up:     0.869   1.966   0.000   0.000   2.835    -0.671       -0.000
                 32   dn:     0.869   1.966   0.000   0.000   2.835
  In              1   up:     0.488   0.708   4.995   0.000   6.190     0.620        0.000
                  1   dn:     0.488   0.708   4.995   0.000   6.190
  In              2   up:     0.488   0.708   4.995   0.000   6.190     0.620        0.000
                  2   dn:     0.488   0.708   4.995   0.000   6.190
  In              3   up:     0.441   0.718   4.995   0.000   6.154     0.692       -0.000
                  3   dn:     0.441   0.718   4.995   0.000   6.154
  In              4   up:     0.488   0.708   4.995   0.000   6.190     0.620        0.000
                  4   dn:     0.488   0.708   4.995   0.000   6.190
  In              5   up:     0.446   0.723   4.994   0.000   6.164     0.673        0.000
                  5   dn:     0.446   0.723   4.994   0.000   6.164
  In              6   up:     0.476   0.709   4.995   0.000   6.180     0.641       -0.000
                  6   dn:     0.476   0.709   4.995   0.000   6.180
  In              7   up:     0.458   0.735   4.994   0.000   6.186     0.628        0.000
                  7   dn:     0.458   0.735   4.994   0.000   6.186
  In              8   up:     0.446   0.723   4.994   0.000   6.164     0.673       -0.000
                  8   dn:     0.446   0.723   4.994   0.000   6.164
  In              9   up:     0.446   0.723   4.994   0.000   6.164     0.673        0.000
                  9   dn:     0.446   0.723   4.994   0.000   6.164
  In             10   up:     0.446   0.723   4.994   0.000   6.164     0.673       -0.000
                 10   dn:     0.446   0.723   4.994   0.000   6.164
  In             11   up:     0.458   0.735   4.994   0.000   6.186     0.628        0.000
                 11   dn:     0.458   0.735   4.994   0.000   6.186
  In             12   up:     0.476   0.709   4.995   0.000   6.180     0.641        0.000
                 12   dn:     0.476   0.709   4.995   0.000   6.180
  In             13   up:     0.448   0.729   4.994   0.000   6.171     0.658       -0.000
                 13   dn:     0.448   0.729   4.994   0.000   6.171
  In             14   up:     0.449   0.723   4.994   0.000   6.167     0.666        0.000
                 14   dn:     0.449   0.723   4.994   0.000   6.167
  In             15   up:     0.444   0.721   4.994   0.000   6.160     0.681        0.000
                 15   dn:     0.444   0.721   4.994   0.000   6.160
  In             16   up:     0.449   0.723   4.994   0.000   6.167     0.666       -0.000
                 16   dn:     0.449   0.723   4.994   0.000   6.167
  In             17   up:     0.476   0.709   4.995   0.000   6.180     0.641       -0.000
                 17   dn:     0.476   0.709   4.995   0.000   6.180
  In             18   up:     0.446   0.723   4.994   0.000   6.164     0.673        0.000
                 18   dn:     0.446   0.723   4.994   0.000   6.164
  In             19   up:     0.458   0.735   4.994   0.000   6.186     0.628        0.000
                 19   dn:     0.458   0.735   4.994   0.000   6.186
  In             20   up:     0.446   0.723   4.994   0.000   6.164     0.673       -0.000
                 20   dn:     0.446   0.723   4.994   0.000   6.164
  In             21   up:     0.449   0.723   4.994   0.000   6.167     0.666        0.000
                 21   dn:     0.449   0.723   4.994   0.000   6.167
  In             22   up:     0.449   0.723   4.994   0.000   6.167     0.666        0.000
                 22   dn:     0.449   0.723   4.994   0.000   6.167
  In             23   up:     0.444   0.721   4.994   0.000   6.160     0.681        0.000
                 23   dn:     0.444   0.721   4.994   0.000   6.160
  In             24   up:     0.448   0.729   4.994   0.000   6.171     0.658       -0.000
                 24   dn:     0.448   0.729   4.994   0.000   6.171
  In             25   up:     0.449   0.723   4.994   0.000   6.167     0.666       -0.000
                 25   dn:     0.449   0.723   4.994   0.000   6.167
  In             26   up:     0.448   0.729   4.994   0.000   6.171     0.658       -0.000
                 26   dn:     0.448   0.729   4.994   0.000   6.171
  In             27   up:     0.444   0.721   4.994   0.000   6.160     0.681        0.000
                 27   dn:     0.444   0.721   4.994   0.000   6.160
  In             28   up:     0.449   0.723   4.994   0.000   6.167     0.666       -0.000
                 28   dn:     0.449   0.723   4.994   0.000   6.167
  In             29   up:     0.447   0.727   4.994   0.000   6.169     0.663       -0.000
                 29   dn:     0.447   0.727   4.994   0.000   6.169
  In             30   up:     0.447   0.727   4.994   0.000   6.169     0.663       -0.000
                 30   dn:     0.447   0.727   4.994   0.000   6.169
  In             31   up:     0.471   0.726   4.994   0.000   6.191     0.618       -0.000
                 31   dn:     0.471   0.726   4.994   0.000   6.191
  In             32   up:     0.447   0.727   4.994   0.000   6.169     0.663       -0.000
                 32   dn:     0.447   0.727   4.994   0.000   6.169
  In             33   up:     0.679   0.678   4.992   0.000   6.349     0.303        0.000
                 33   dn:     0.678   0.678   4.992   0.000   6.348
==============================================================================================

                 Bond                   Population        Spin       Length (A)
================================================================================
              P 8  -- In 4                   0.73        -0.00          2.50575
              P 12 -- In 2                   0.73        -0.00          2.50575
              P 32 -- In 1                   0.73        -0.00          2.50575
              P 18 -- In 1                   0.69        -0.00          2.52516
              P 3  -- In 4                   0.69         0.00          2.52516
              P 1  -- In 2                   0.69        -0.00          2.52516
              P 29 -- In 28                  0.66        -0.00          2.53369
              P 31 -- In 22                  0.66         0.00          2.53369
              P 14 -- In 16                  0.66        -0.00          2.53369
              P 14 -- In 14                  0.66        -0.00          2.53369
              P 31 -- In 21                  0.66        -0.00          2.53369
              P 29 -- In 25                  0.66        -0.00          2.53369
              P 7  -- In 7                   0.62        -0.00          2.53476
              P 9  -- In 11                  0.62         0.00          2.53476
              P 17 -- In 19                  0.62         0.00          2.53476
              P 19 -- In 19                  0.62        -0.00          2.53476
              P 22 -- In 7                   0.62         0.00          2.53476
              P 26 -- In 11                  0.62         0.00          2.53476
              P 28 -- In 11                  0.64         0.00          2.53503
              P 4  -- In 19                  0.64         0.00          2.53503
              P 24 -- In 7                   0.64         0.00          2.53503
              P 15 -- In 6                   0.69        -0.00          2.53580
              P 27 -- In 17                  0.69        -0.00          2.53580
              P 21 -- In 17                  0.69        -0.00          2.53580
              P 13 -- In 12                  0.69        -0.00          2.53580
              P 6  -- In 6                   0.69        -0.00          2.53580
              P 10 -- In 12                  0.69        -0.00          2.53580
              P 9  -- In 13                  0.65        -0.00          2.53935
              P 7  -- In 13                  0.65         0.00          2.53935
              P 26 -- In 26                  0.65        -0.00          2.53935
              P 22 -- In 24                  0.65         0.00          2.53935
              P 17 -- In 24                  0.65        -0.00          2.53935
              P 19 -- In 26                  0.65         0.00          2.53935
              P 26 -- In 28                  0.66        -0.00          2.54266
              P 22 -- In 22                  0.66        -0.00          2.54266
              P 17 -- In 21                  0.66        -0.00          2.54266
              P 19 -- In 25                  0.66        -0.00          2.54266
              P 9  -- In 16                  0.66        -0.00          2.54266
              P 7  -- In 14                  0.66        -0.00          2.54266
              P 20 -- In 24                  0.65         0.00          2.54364
              P 20 -- In 26                  0.65         0.00          2.54364
              P 20 -- In 13                  0.65         0.00          2.54364
              P 28 -- In 32                  0.65        -0.00          2.54415
              P 24 -- In 30                  0.65        -0.00          2.54415
              P 4  -- In 29                  0.65        -0.00          2.54415
              P 19 -- In 20                  0.66         0.00          2.54481
              P 17 -- In 18                  0.66        -0.00          2.54481
              P 26 -- In 9                   0.66        -0.00          2.54481
              P 22 -- In 5                   0.66        -0.00          2.54481
              P 9  -- In 10                  0.66         0.00          2.54481
              P 7  -- In 8                   0.66         0.00          2.54481
              P 4  -- In 10                  0.66         0.00          2.54518
              P 4  -- In 8                   0.66         0.00          2.54518
              P 24 -- In 20                  0.66         0.00          2.54518
              P 28 -- In 18                  0.66         0.00          2.54518
              P 24 -- In 9                   0.66         0.00          2.54518
              P 28 -- In 5                   0.66        -0.00          2.54518
              P 25 -- In 27                  0.67         0.00          2.54585
              P 23 -- In 23                  0.67         0.00          2.54585
              P 30 -- In 15                  0.67        -0.00          2.54585
              P 31 -- In 32                  0.66         0.00          2.54741
              P 29 -- In 30                  0.66         0.00          2.54741
              P 14 -- In 29                  0.66         0.00          2.54741
              P 14 -- In 31                  0.61         0.00          2.54765
              P 31 -- In 31                  0.61        -0.00          2.54766
              P 29 -- In 31                  0.61         0.00          2.54766
              P 21 -- In 23                  0.65         0.00          2.54776
              P 27 -- In 27                  0.65         0.00          2.54776
              P 13 -- In 15                  0.65         0.00          2.54776
              P 15 -- In 15                  0.65         0.00          2.54776
              P 6  -- In 23                  0.65        -0.00          2.54776
              P 10 -- In 27                  0.65        -0.00          2.54776
              P 23 -- In 29                  0.65        -0.00          2.54795
              P 25 -- In 29                  0.65        -0.00          2.54795
              P 23 -- In 30                  0.65        -0.00          2.54795
              P 25 -- In 32                  0.65        -0.00          2.54795
              P 30 -- In 32                  0.65        -0.00          2.54795
              P 30 -- In 30                  0.65         0.00          2.54795
              P 11 -- In 11                  0.52        -0.00          2.54827
              P 2  -- In 19                  0.52        -0.00          2.54827
              P 5  -- In 7                   0.52        -0.00          2.54827
              P 32 -- In 15                  0.65        -0.00          2.54904
              P 12 -- In 27                  0.65        -0.00          2.54904
              P 8  -- In 23                  0.65         0.00          2.54904
              P 3  -- In 9                   0.64        -0.00          2.54960
              P 1  -- In 5                   0.64        -0.00          2.54960
              P 18 -- In 20                  0.64         0.00          2.54960
              P 18 -- In 18                  0.64         0.00          2.54960
              P 1  -- In 8                   0.64        -0.00          2.54960
              P 3  -- In 10                  0.64        -0.00          2.54960
              P 13 -- In 9                   0.64        -0.00          2.54977
              P 15 -- In 5                   0.64        -0.00          2.54977
              P 10 -- In 10                  0.64         0.00          2.54978
              P 21 -- In 20                  0.64        -0.00          2.54978
              P 6  -- In 8                   0.64        -0.00          2.54978
              P 27 -- In 18                  0.64         0.00          2.54978
              P 12 -- In 16                  0.62         0.00          2.55085
              P 8  -- In 14                  0.62         0.00          2.55085
              P 32 -- In 28                  0.62         0.00          2.55085
              P 32 -- In 22                  0.62         0.00          2.55085
              P 8  -- In 25                  0.62         0.00          2.55085
              P 12 -- In 21                  0.62         0.00          2.55085
              P 30 -- In 13                  0.65        -0.00          2.55180
              P 25 -- In 26                  0.65        -0.00          2.55180
              P 23 -- In 24                  0.65        -0.00          2.55180
              P 10 -- In 25                  0.64        -0.00          2.55229
              P 6  -- In 21                  0.64        -0.00          2.55229
              P 21 -- In 22                  0.64        -0.00          2.55229
              P 27 -- In 28                  0.64        -0.00          2.55229
              P 13 -- In 14                  0.64        -0.00          2.55229
              P 15 -- In 16                  0.64        -0.00          2.55229
              P 1  -- In 3                   0.65        -0.00          2.55321
              P 3  -- In 3                   0.65         0.00          2.55321
              P 18 -- In 3                   0.65        -0.00          2.55321
              P 20 -- In 3                   0.65        -0.00          2.56346
              P 16 -- In 31                  0.49        -0.00          2.58123
              P 11 -- In 12                  0.53         0.00          2.62630
              P 5  -- In 6                   0.53         0.00          2.62630
              P 2  -- In 17                  0.53        -0.00          2.62630
              P 16 -- In 17                  0.51        -0.00          2.64190
              P 16 -- In 6                   0.51         0.00          2.64190
              P 16 -- In 12                  0.51        -0.00          2.64190
              P 2  -- In 33                  0.34         0.00          2.65729
              P 5  -- In 33                  0.34        -0.00          2.65729
              P 11 -- In 33                  0.34        -0.00          2.65729
              P 16 -- In 33                  0.28         0.00          2.71825
              P 2  -- In 2                   0.42         0.00          2.72315
              P 2  -- In 4                   0.42         0.00          2.72315
              P 5  -- In 4                   0.42        -0.00          2.72315
              P 5  -- In 1                   0.42        -0.00          2.72315
              P 11 -- In 2                   0.42        -0.00          2.72315
              P 11 -- In 1                   0.42        -0.00          2.72315
================================================================================

 Hirshfeld supercell size:           2           2           2
Standard grid dimensions: 240 240 240
Fine grid dimensions:     240 240 240


     Hirshfeld Analysis
     ------------------
Species   Ion     Hirshfeld Charge (e)  Spin (hbar/2)
===================================================
  P        1                -0.23        0.00
  P        2                -0.23        0.00
  P        3                -0.23        0.00
  P        4                -0.24       -0.00
  P        5                -0.23        0.00
  P        6                -0.24        0.00
  P        7                -0.24       -0.00
  P        8                -0.23       -0.00
  P        9                -0.24       -0.00
  P       10                -0.24        0.00
  P       11                -0.23        0.00
  P       12                -0.23       -0.00
  P       13                -0.24        0.00
  P       14                -0.24       -0.00
  P       15                -0.24        0.00
  P       16                -0.24        0.00
  P       17                -0.24       -0.00
  P       18                -0.23        0.00
  P       19                -0.24       -0.00
  P       20                -0.24       -0.00
  P       21                -0.24        0.00
  P       22                -0.24       -0.00
  P       23                -0.24       -0.00
  P       24                -0.24       -0.00
  P       25                -0.24       -0.00
  P       26                -0.24       -0.00
  P       27                -0.24        0.00
  P       28                -0.24       -0.00
  P       29                -0.24       -0.00
  P       30                -0.24       -0.00
  P       31                -0.24       -0.00
  P       32                -0.23       -0.00
  In       1                 0.24        0.00
  In       2                 0.24        0.00
  In       3                 0.24        0.00
  In       4                 0.24        0.00
  In       5                 0.24        0.00
  In       6                 0.24        0.00
  In       7                 0.22       -0.00
  In       8                 0.24        0.00
  In       9                 0.24        0.00
  In      10                 0.24        0.00
  In      11                 0.22       -0.00
  In      12                 0.24        0.00
  In      13                 0.23       -0.00
  In      14                 0.24       -0.00
  In      15                 0.24       -0.00
  In      16                 0.24       -0.00
  In      17                 0.24        0.00
  In      18                 0.24        0.00
  In      19                 0.22       -0.00
  In      20                 0.24        0.00
  In      21                 0.24       -0.00
  In      22                 0.24       -0.00
  In      23                 0.24       -0.00
  In      24                 0.23       -0.00
  In      25                 0.24       -0.00
  In      26                 0.23       -0.00
  In      27                 0.24       -0.00
  In      28                 0.24       -0.00
  In      29                 0.23       -0.00
  In      30                 0.23       -0.00
  In      31                 0.22       -0.00
  In      32                 0.23       -0.00
  In      33                 0.09        0.00
===================================================

 
 A BibTeX formatted list of references used in this run has been written to 
 In_Interstitial_Migration_Tetra_Octa_Singlepoints_6.bib
 
Initialisation time =     30.35 s
Calculation time    =   8061.46 s
Finalisation time   =    156.32 s
Total time          =   8248.12 s
Peak Memory Use     = 9692776 kB
 
Overall parallel efficiency rating: Terrible (34%)
 
Data was distributed by:-
G-vector (3-way); efficiency rating: Poor (37%)
k-point (36-way); efficiency rating: Very good (81%)
