 +-------------------------------------------------+
 |                                                 |
 |      CCC   AA    SSS  TTTTT  EEEEE  PPPP        |
 |     C     A  A  S       T    E      P   P       |
 |     C     AAAA   SS     T    EEE    PPPP        |
 |     C     A  A     S    T    E      P           |
 |      CCC  A  A  SSS     T    EEEEE  P           |
 |                                                 |
 +-------------------------------------------------+
 |                                                 |
 | Welcome to Academic Release CASTEP version 22.11|
 | Ab Initio Total Energy Program                  |
 |                                                 |
 | Authors:                                        |
 | M. Segall, M. Probert, C. Pickard, P. Hasnip,   |
 | S. Clark, K. Refson, J. R. Yates, M. Payne      |
 |                                                 |
 | Contributors:                                   |
 | P. Lindan, P. Haynes, J. White, V. Milman,      |
 | N. Govind, M. Gibson, P. Tulip, V. Cocula,      |
 | B. Montanari, D. Quigley, M. Glover,            |
 | L. Bernasconi, A. Perlov, M. Plummer,           |
 | E. McNellis, J. Meyer, J. Gale, D. Jochym       |
 | J. Aarons, B. Walker, R. Gillen, D. Jones       |
 | T. Green, I. J. Bush, C. J. Armstrong,          |
 | E. J. Higgins, E. L. Brown, M. S. McFly,        |
 | J. Wilkins, B-C. Shih, P. J. P. Byrne,          |
 | R. J. Maurer, J. C. Womack, J. Dziedzic,        |
 | A. Bartok-Partay, L. LeBlanc, T. K. Stenczel,   |
 | J. Kermode, S. Sturniolo, B. Shi, B. Durham     |
 | M. Evans, M. J. Smith                           |
 |                                                 |
 | Copyright (c) 2000 - 2021                       |
 |                                                 |
 |     Distributed under license from Cambridge    |
 |     Enterprise for academic use only.           |
 |                                                 |
 | Please cite                                     |
 |                                                 |
 |     "First principles methods using CASTEP"     |
 |                                                 |
 |         Zeitschrift fuer Kristallographie       |
 |           220(5-6) pp. 567-570 (2005)           |
 |                                                 |
 | S. J. Clark, M. D. Segall, C. J. Pickard,       |
 | P. J. Hasnip, M. J. Probert, K. Refson,         |
 | M. C. Payne                                     |
 |                                                 |
 |       in all publications arising from          |
 |              your use of CASTEP                 |
 |                                                 |
 +-------------------------------------------------+
 |                                                 |
 |              http://www.castep.org              |
 |                                                 |
 +-------------------------------------------------+



 Compiled for linux_x86_64_gfortran10-XT on Thu, 16 Mar 2023 13:12:36 +0000
 from code version Version unavailable
 Compiler: GNU Fortran 11.2.0; Optimisation: fast
 MATHLIBS: LibSci (LAPACK version 3.10.1)
 FFT Lib : fftw3 version commercial-fftw-3.3.10-sse2-avx-avx2-avx2_128
 Fundamental constants values: CODATA 2014

 Run started: Mon, 25 Mar 2024 20:01:30 +0000

 Atomic calculation performed for P: 1s2 2s2 2p6 3s2 3p3

 Converged in 47 iterations to an ae energy of -9309.074 eV

   ============================================================                
   | Pseudopotential Report - Date of generation 25-03-2024   |                
   ------------------------------------------------------------                
   | Element: P Ionic charge:  5.00 Level of theory: RSCAN    |                
   | Atomic Solver: Koelling-Harmon                           |                
   |                                                          |                
   |               Reference Electronic Structure             |                
   |         Orbital         Occupation         Energy        |                
   |            3s              2.000           -0.535        |                
   |            3p              3.000           -0.209        |                
   |                                                          |                
   |                 Pseudopotential Definition               |                
   |        Beta     l      e      Rc     scheme   norm       |                
   |          1      0   -0.535   1.807     qc      0         |                
   |          2      0    0.250   1.807     qc      0         |                
   |          3      1   -0.209   1.807     qc      0         |                
   |          4      1    0.250   1.807     qc      0         |                
   |          5      2    0.000   1.807     qc      0         |                
   |          6      2    0.250   1.807     qc      0         |                
   |         loc     3    0.000   1.807     pn      0         |                
   |                                                          |                
   | Augmentation charge Rinner = 1.263                       |                
   | Partial core correction Rc = 1.263                       |                
   ------------------------------------------------------------                
   | "3|1.8|4|4|5|30:31:32"                                   |                
   ------------------------------------------------------------                
   |      Author: Chris J. Pickard, Cambridge University      |                
   ============================================================                
 Warning: otfg_output_psp cannot write out meta-GGA pseudopotentials presently.

 Atomic calculation performed for In:
 1s2 2s2 2p6 3s2 3p6 3d10 4s2 4p6 4d10 5s2 5p1

 Converged in 84 iterations to an ae energy of -160093.327 eV

   ============================================================                
   | Pseudopotential Report - Date of generation 25-03-2024   |                
   ------------------------------------------------------------                
   | Element: In Ionic charge: 13.00 Level of theory: RSCAN   |                
   | Atomic Solver: Koelling-Harmon                           |                
   |                                                          |                
   |               Reference Electronic Structure             |                
   |         Orbital         Occupation         Energy        |                
   |            4d             10.000           -0.711        |                
   |            5s              2.000           -0.313        |                
   |            5p              1.000           -0.095        |                
   |                                                          |                
   |                 Pseudopotential Definition               |                
   |        Beta     l      e      Rc     scheme   norm       |                
   |          1      0   -0.313   2.501     qc      0         |                
   |          2      0    0.250   2.501     qc      0         |                
   |          3      1   -0.095   2.501     qc      0         |                
   |          4      1    0.250   2.501     qc      0         |                
   |          5      2   -0.711   2.207     qc      0         |                
   |          6      2    0.250   2.207     qc      0         |                
   |         loc     3    0.000   2.501     pn      0         |                
   |                                                          |                
   | Augmentation charge Rinner = 1.504                       |                
   | Partial core correction Rc = 1.504                       |                
   ------------------------------------------------------------                
   | "3|2.5|2.5|1.5|7|8|9|50:51:42U2.2U2.2"                   |                
   ------------------------------------------------------------                
   |      Author: Chris J. Pickard, Cambridge University      |                
   ============================================================                
 Warning: otfg_output_psp cannot write out meta-GGA pseudopotentials presently.

 Pseudo atomic calculation performed for P 3s2 3p3

 Converged in 23 iterations to a total energy of -208.0292 eV

 Pseudo atomic calculation performed for In 4d10 5s2 5p1

 Converged in 42 iterations to a total energy of -1747.4500 eV
 Calculation parallelised over 240 processes.
 Data is distributed by G-vector(6-way) and k-point(40-way)
 Each process may use up to 2 threads.

 ************************************ Title ************************************
 

 ***************************** General Parameters ******************************
  
 output verbosity                               : normal  (1)
 write checkpoint data to                       : StackingFaultStructs_(1_1_0)_(1_-1_0)_6.check
 type of calculation                            : geometry optimization
 stress calculation                             : off
 density difference calculation                 : off
 electron localisation func (ELF) calculation   : off
 Hirshfeld analysis                             : on
 polarisation (Berry phase) analysis            : off
 molecular orbital projected DOS                : off
 deltaSCF calculation                           : off
 unlimited duration calculation
 timing information                             : on
 memory usage estimate                          : on
 write extra output files                       : on
 write final potential to formatted file        : off
 write final density to formatted file          : off
 write BibTeX reference list                    : on
 write OTFG pseudopotential files               : on
 write electrostatic potential file             : on
 write bands file                               : on
 checkpoint writing                             : off
  
 output         length unit                     : A
 output           mass unit                     : amu
 output           time unit                     : ps
 output         charge unit                     : e
 output           spin unit                     : hbar/2
 output         energy unit                     : eV
 output          force unit                     : eV/A
 output       velocity unit                     : A/ps
 output       pressure unit                     : GPa
 output     inv_length unit                     : 1/A
 output      frequency unit                     : cm-1
 output force constant unit                     : eV/A**2
 output         volume unit                     : A**3
 output   IR intensity unit                     : (D/A)**2/amu
 output         dipole unit                     : D
 output         efield unit                     : eV/A/e
 output        entropy unit                     : J/mol/K
 output    efield chi2 unit                     : pm/V
  
 wavefunctions paging                           : none
 random number generator seed                   : randomised (200130844)
 data distribution                              : optimal for this architecture
 optimization strategy                          : balance speed and memory

 *********************** Exchange-Correlation Parameters ***********************
  
 using functional                               : RSCAN
 relativistic treatment                         : Koelling-Harmon
 DFT+D: Semi-empirical dispersion correction    : off

 ************************* Pseudopotential Parameters **************************
  
 pseudopotential representation                 : reciprocal space
 <beta|phi> representation                      : reciprocal space
 spin-orbit coupling                            : off

 **************************** Basis Set Parameters *****************************
  
 plane wave basis set cut-off                   :   900.0000   eV
 size of standard grid                          :     2.0000
 size of   fine   gmax                          :    30.7390   1/A
 finite basis set correction                    : none

 **************************** Electronic Parameters ****************************
  
 number of  electrons                           :  288.0    
 net charge of system                           :  0.000    
 treating system as non-spin-polarized
 number of bands                                :        173

 ********************* Electronic Minimization Parameters **********************
  
 Method: Treating system as metallic with density mixing treatment of electrons,
         and number of  SD  steps               :          1
         and number of  CG  steps               :          4
  
 total energy / atom convergence tol.           : 0.1000E-07   eV
 eigen-energy convergence tolerance             : 0.2222E-08   eV
 max force / atom convergence tol.              : ignored
 convergence tolerance window                   :          3   cycles
 max. number of SCF cycles                      :         50
 number of fixed-spin iterations                :         10
 smearing scheme                                : Gaussian
 smearing width                                 : 0.2000       eV
 Fermi energy convergence tolerance             : 0.2721E-13   eV
 periodic dipole correction                     : NONE

 ************************** Density Mixing Parameters **************************
  
 density-mixing scheme                          : Pulay
 max. length of mixing history                  :         15
 charge density mixing amplitude                : 0.5000    
 cut-off energy for mixing                      :  900.0       eV

 *********************** Population Analysis Parameters ************************
  
 Population analysis with cutoff                :  3.000       A
 Population analysis output                     : summary and pdos components

 ********************** Geometry Optimization Parameters ***********************
  
 optimization method                            : LBFGS
 max. no. of LBFGS updates                      : unbounded
 preconditioned LBFGS is activated
 preconditioner type                            : EXP
     stabilization constant                     :     0.1000
     parameter A                                :     3.0000
     nearest neighbor distance                  : automatic
     cut-off distance                           : automatic
     parameter mu                               : automatic
 variable cell method                           : fixed basis quality
 max. number of steps                           :         30
 estimated bulk modulus                         :  500.0       GPa
 estimated <frequency>                          :  1668.       cm-1
 geom line minimiser                            : on
 with line minimiser tolerance                  :     0.4000
 total energy convergence tolerance             : 0.2000E-04   eV/atom
        max ionic |force| tolerance             : 0.1000E-02   eV/A
 max ionic |displacement| tolerance             : 0.1000E-02   A
   max |stress component| tolerance             : 0.1000       GPa
 convergence tolerance window                   :          2   steps
 backup results every                           :          5   steps
 write geom trajectory file                     : on

 *******************************************************************************
  

                           -------------------------------
                                      Unit Cell
                           -------------------------------
        Real Lattice(A)                      Reciprocal Lattice(1/A)
     5.9012740     0.0000000     0.0000000        1.064716756   0.000000000   0.000000000
     0.0000000     8.3456610     0.0000000        0.000000000   0.752868503  -0.130304180
     0.0000000     2.8888830    16.6913220        0.000000000   0.000000000   0.376434252

                       Lattice parameters(A)       Cell Angles
                    a =      5.901274          alpha =   80.180698
                    b =      8.345661          beta  =   90.000000
                    c =     16.939477          gamma =   90.000000

                       Current cell volume =           822.048147       A**3
                                   density =             2.837630   AMU/A**3
                                           =             4.711995     g/cm^3

                           -------------------------------
                                     Cell Contents
                           -------------------------------
                         Total number of ions in cell =   32
                      Total number of species in cell =    2
                        Max number of any one species =   16

            xxxxxxxxxxxxxxxxxxxxxxxxxxxxxxxxxxxxxxxxxxxxxxxxxxxxxxxxxxxx
            x  Element    Atom        Fractional coordinates of atoms  x
            x            Number           u          v          w      x
            x----------------------------------------------------------x
            x  P            1         0.750000   0.370177   0.375045   x 
            x  P            2         0.250000   0.252767  -0.007994   x 
            x  P            3         0.750000   0.194348   0.882994   x 
            x  P            4         0.750000   0.457296   0.123368   x 
            x  P            5         0.250000   0.489820   0.751632   x 
            x  P            6         0.750000  -0.042704   0.123368   x 
            x  P            7         0.250000   0.164483   0.247049   x 
            x  P            8         0.250000  -0.010180   0.751632   x 
            x  P            9         0.250000   0.664483   0.247049   x 
            x  P           10         0.750000  -0.217368   0.627951   x 
            x  P           11         0.750000  -0.129823   0.375045   x 
            x  P           12         0.750000   0.282632   0.627951   x 
            x  P           13         0.250000   0.076939   0.499955   x 
            x  P           14         0.250000   0.576939   0.499955   x 
            x  P           15         0.750000  -0.305652   0.882994   x 
            x  P           16         0.250000   0.752767  -0.007994   x 
            x  In           1         0.500000   0.120701   0.373530   x 
            x  In           2         0.000000   0.238400   0.755734   x 
            x  In           3         0.500000   0.533445   0.625603   x 
            x  In           4         0.000000  -0.261600   0.755734   x 
            x  In           5         0.500000   0.033445   0.625603   x 
            x  In           6         0.000000  -0.173586   0.501470   x 
            x  In           7         0.000000   0.326414   0.501470   x 
            x  In           8         0.500000   0.446697   0.876209   x 
            x  In           9         0.500000   0.620701   0.373530   x 
            x  In          10         0.000000   0.413670   0.249397   x 
            x  In          11         0.500000   0.708716   0.119266   x 
            x  In          12         0.500000  -0.053303   0.876209   x 
            x  In          13         0.000000  -0.086330   0.249397   x 
            x  In          14         0.500000   0.208716   0.119266   x 
            x  In          15         0.000000   0.000418  -0.001209   x 
            x  In          16         0.000000   0.500418  -0.001209   x 
            xxxxxxxxxxxxxxxxxxxxxxxxxxxxxxxxxxxxxxxxxxxxxxxxxxxxxxxxxxxx


                         No user defined ionic velocities

                           -------------------------------
                                   Details of Species
                           -------------------------------

                               Mass of species in AMU
                                    P   30.9737600
                                    In  114.8180000

                          Electric Quadrupole Moment (Barn)
                                    P    1.0000000 No Isotope Defined
                                    In    0.7700000 Isotope115

                          Files used for pseudopotentials:
                                    P 3|1.8|4|4|5|30:31:32
                                    In 3|2.5|2.5|1.5|7|8|9|50:51:42U2.2U2.2

                           -------------------------------
                              k-Points For BZ Sampling
                           -------------------------------
                       MP grid size for SCF calculation is  6  6  2
                            with an offset of   0.083  0.083  0.250
                       Number of kpoints used =            40

                           -------------------------------
                               Symmetry and Constraints
                           -------------------------------

                      Cell is a supercell containing 2 primitive cells
                      Maximum deviation from symmetry =  0.00000         ANG

                      Number of symmetry operations   =           1
                      Number of ionic constraints     =          64
                      Point group of crystal =     1: C1, 1, 1
                      Space group of crystal =     4: P2_1, P 2yb

             Set iprint > 1 for details on symmetry rotations/translations

                         Centre of mass is NOT constrained
             Set iprint > 1 for details of linear ionic constraints

                         Number of cell constraints= 6
                         Cell constraints are:  0 0 0 0 0 0

                         External pressure/stress (GPa)
                          0.00000   0.00000   0.00000
                                    0.00000   0.00000
                                              0.00000
 
+---------------- MEMORY AND SCRATCH DISK ESTIMATES PER PROCESS --------------+
|                                                     Memory          Disk    |
| Baseline code, static data and system overhead      488.0 MB         0.0 MB |
| BLAS internal memory storage                          0.0 MB         0.0 MB |
| Model and support data                             1164.3 MB         0.0 MB |
| Electronic energy minimisation requirements         143.5 MB         0.0 MB |
| Force calculation requirements                       23.8 MB         0.0 MB |
|                                               ----------------------------- |
| Approx. total storage required per process         1795.8 MB         0.0 MB |
|                                                                             |
| Requirements will fluctuate during execution and may exceed these estimates |
+-----------------------------------------------------------------------------+
Calculating approximate eigenstates for fixed initial Hamiltonian
Cut-off for approx. calculation is  108.886 eV
Improving approx. states at cut-off of  450.000 eV
Resetting cut-off to  900.000 eV
Calculating total energy with cut-off of  900.000 eV.
------------------------------------------------------------------------ <-- SCF
SCF loop      Energy           Fermi           Energy gain       Timer   <-- SCF
                               energy          per atom          (sec)   <-- SCF
------------------------------------------------------------------------ <-- SCF
Initial  -3.15177378E+004  0.00000000E+000                        53.82  <-- SCF
      1  -3.14002758E+004  2.57985692E+000  -3.67068569E+000      79.08  <-- SCF
      2  -3.14003018E+004  2.57976323E+000   8.11445845E-004      99.96  <-- SCF
      3  -3.14341218E+004  2.88606768E+000   1.05687609E+000     122.78  <-- SCF
      4  -3.14397976E+004  2.95428260E+000   1.77369125E-001     150.46  <-- SCF
      5  -3.14373984E+004  3.28198553E+000  -7.49751668E-002     173.05  <-- SCF
      6  -3.14369171E+004  3.33174364E+000  -1.50411755E-002     195.59  <-- SCF
      7  -3.14368326E+004  3.38170978E+000  -2.64205891E-003     219.29  <-- SCF
      8  -3.14376584E+004  3.41903003E+000   2.58080277E-002     242.17  <-- SCF
      9  -3.14376420E+004  3.37047264E+000  -5.13299671E-004     265.20  <-- SCF
     10  -3.14376513E+004  3.38816241E+000   2.91051830E-004     288.65  <-- SCF
     11  -3.14376513E+004  3.38730982E+000   5.41544475E-007     312.93  <-- SCF
     12  -3.14376516E+004  3.38633950E+000   7.08371964E-006     336.17  <-- SCF
     13  -3.14376516E+004  3.38643984E+000   6.22427577E-008     354.67  <-- SCF
     14  -3.14376516E+004  3.38636819E+000  -1.46666458E-008     371.62  <-- SCF
     15  -3.14376516E+004  3.38634422E+000   1.88021775E-008     388.19  <-- SCF
     16  -3.14376516E+004  3.38635736E+000  -3.43580332E-010     404.70  <-- SCF
     17  -3.14376516E+004  3.38634955E+000  -6.86967315E-010     421.06  <-- SCF
------------------------------------------------------------------------ <-- SCF
 
Final energy, E             =  -31437.65130133     eV
Final free energy (E-TS)    =  -31437.65157065     eV
(energies not corrected for finite basis set)
 
NB est. 0K energy (E-0.5TS)      =  -31437.65143599     eV
 
 
+---------------- MEMORY AND SCRATCH DISK ESTIMATES PER PROCESS --------------+
|                                                     Memory          Disk    |
| Model and support data                              742.5 MB         0.0 MB |
| Electronic energy minimisation requirements         143.5 MB         0.0 MB |
| Geometry minimisation requirements                  168.8 MB         0.0 MB |
|                                               ----------------------------- |
| Approx. total storage required per process         1054.8 MB         0.0 MB |
|                                                                             |
| Requirements will fluctuate during execution and may exceed these estimates |
+-----------------------------------------------------------------------------+
 

 ******************************** Constrained Forces ********************************
 *                                                                                  *
 *                           Cartesian components (eV/A)                            *
 * -------------------------------------------------------------------------------- *
 *                         x                    y                    z              *
 *                                                                                  *
 * P               1      0.00000(cons'd)      0.00000(cons'd)      0.00830         *
 * P               2      0.00000(cons'd)      0.00000(cons'd)      0.00461         *
 * P               3      0.00000(cons'd)      0.00000(cons'd)     -0.00172         *
 * P               4     -0.00000(cons'd)      0.00000(cons'd)     -0.00553         *
 * P               5      0.00000(cons'd)      0.00000(cons'd)     -0.00269         *
 * P               6     -0.00000(cons'd)      0.00000(cons'd)     -0.00553         *
 * P               7      0.00000(cons'd)      0.00000(cons'd)      0.00410         *
 * P               8     -0.00000(cons'd)     -0.00000(cons'd)     -0.00269         *
 * P               9      0.00000(cons'd)      0.00000(cons'd)      0.00410         *
 * P              10      0.00000(cons'd)     -0.00000(cons'd)     -0.00734         *
 * P              11      0.00000(cons'd)      0.00000(cons'd)      0.00830         *
 * P              12      0.00000(cons'd)     -0.00000(cons'd)     -0.00734         *
 * P              13      0.00000(cons'd)      0.00000(cons'd)     -0.00407         *
 * P              14      0.00000(cons'd)      0.00000(cons'd)     -0.00407         *
 * P              15      0.00000(cons'd)      0.00000(cons'd)     -0.00172         *
 * P              16      0.00000(cons'd)      0.00000(cons'd)      0.00461         *
 * In              1      0.00000(cons'd)      0.00000(cons'd)     -0.01955         *
 * In              2      0.00000(cons'd)      0.00000(cons'd)     -0.03479         *
 * In              3      0.00000(cons'd)      0.00000(cons'd)     -0.00618         *
 * In              4      0.00000(cons'd)      0.00000(cons'd)     -0.03479         *
 * In              5      0.00000(cons'd)     -0.00000(cons'd)     -0.00618         *
 * In              6      0.00000(cons'd)      0.00000(cons'd)      0.02041         *
 * In              7      0.00000(cons'd)     -0.00000(cons'd)      0.02041         *
 * In              8      0.00000(cons'd)      0.00000(cons'd)      0.05100         *
 * In              9      0.00000(cons'd)      0.00000(cons'd)     -0.01955         *
 * In             10      0.00000(cons'd)      0.00000(cons'd)      0.00736         *
 * In             11      0.00000(cons'd)     -0.00000(cons'd)      0.03565         *
 * In             12      0.00000(cons'd)      0.00000(cons'd)      0.05100         *
 * In             13      0.00000(cons'd)      0.00000(cons'd)      0.00736         *
 * In             14      0.00000(cons'd)     -0.00000(cons'd)      0.03565         *
 * In             15      0.00000(cons'd)      0.00000(cons'd)     -0.04957         *
 * In             16      0.00000(cons'd)      0.00000(cons'd)     -0.04957         *
 *                                                                                  *
 ************************************************************************************
 EXP precond LBFGS => estimated nearest neighbor distance :  2.558       A
 EXP precond LBFGS => estimated cutoff distance :  5.116       A

 ************************************** Forces **************************************
 *                                                                                  *
 *                           Cartesian components (eV/A)                            *
 * -------------------------------------------------------------------------------- *
 *                         x                    y                    z              *
 *                                                                                  *
 * P               1      0.05245(cons'd)      0.00120(cons'd)      0.00830         *
 * P               2      0.52854(cons'd)      1.06176(cons'd)      0.00461         *
 * P               3      0.52395(cons'd)     -1.06142(cons'd)     -0.00172         *
 * P               4     -0.07767(cons'd)      0.10372(cons'd)     -0.00553         *
 * P               5     -0.07588(cons'd)     -0.11135(cons'd)     -0.00269         *
 * P               6     -0.07766(cons'd)      0.10373(cons'd)     -0.00553         *
 * P               7      0.12812(cons'd)      0.01138(cons'd)      0.00410         *
 * P               8     -0.07588(cons'd)     -0.11135(cons'd)     -0.00269         *
 * P               9      0.12812(cons'd)      0.01137(cons'd)      0.00410         *
 * P              10      0.12200(cons'd)     -0.00949(cons'd)     -0.00734         *
 * P              11      0.05245(cons'd)      0.00120(cons'd)      0.00830         *
 * P              12      0.12200(cons'd)     -0.00950(cons'd)     -0.00734         *
 * P              13      0.05041(cons'd)      0.00008(cons'd)     -0.00407         *
 * P              14      0.05041(cons'd)      0.00008(cons'd)     -0.00407         *
 * P              15      0.52396(cons'd)     -1.06141(cons'd)     -0.00172         *
 * P              16      0.52855(cons'd)      1.06175(cons'd)      0.00461         *
 * In              1     -0.09596(cons'd)     -0.00074(cons'd)     -0.01955         *
 * In              2     -0.19371(cons'd)     -0.08168(cons'd)     -0.03479         *
 * In              3      0.01029(cons'd)      0.00556(cons'd)     -0.00618         *
 * In              4     -0.19372(cons'd)     -0.08167(cons'd)     -0.03479         *
 * In              5      0.01029(cons'd)      0.00556(cons'd)     -0.00618         *
 * In              6     -0.09590(cons'd)      0.00182(cons'd)      0.02041         *
 * In              7     -0.09590(cons'd)      0.00182(cons'd)      0.02041         *
 * In              8     -0.34671(cons'd)     -0.28707(cons'd)      0.05100         *
 * In              9     -0.09596(cons'd)     -0.00074(cons'd)     -0.01955         *
 * In             10      0.01026(cons'd)     -0.00463(cons'd)      0.00736         *
 * In             11     -0.19362(cons'd)      0.08291(cons'd)      0.03565         *
 * In             12     -0.34671(cons'd)     -0.28706(cons'd)      0.05100         *
 * In             13      0.01026(cons'd)     -0.00463(cons'd)      0.00736         *
 * In             14     -0.19362(cons'd)      0.08291(cons'd)      0.03565         *
 * In             15     -0.34659(cons'd)      0.28794(cons'd)     -0.04957         *
 * In             16     -0.34659(cons'd)      0.28794(cons'd)     -0.04957         *
 *                                                                                  *
 ************************************************************************************
 doing test perturbation to get energy scale for EXP preconditioner

                           -------------------------------
                                     Cell Contents
                           -------------------------------

            xxxxxxxxxxxxxxxxxxxxxxxxxxxxxxxxxxxxxxxxxxxxxxxxxxxxxxxxxxxxxxxxx
            x  Element         Atom        Fractional coordinates of atoms  x
            x                 Number           u          v          w      x
            x---------------------------------------------------------------x
            x  P                 1         0.753647   0.371427   0.375679   x
            x  P                 2         0.251418   0.254009   0.993391   x
            x  P                 3         0.753647   0.195370   0.884287   x
            x  P                 4         0.753647   0.458691   0.123583   x
            x  P                 5         0.251418   0.491509   0.752788   x
            x  P                 6         0.753647   0.959800   0.123583   x
            x  P                 7         0.251418   0.165094   0.247474   x
            x  P                 8         0.251418   0.992328   0.752788   x
            x  P                 9         0.251418   0.666425   0.247474   x
            x  P                10         0.753647   0.784864   0.628955   x
            x  P                11         0.753647   0.872536   0.375679   x
            x  P                12         0.753647   0.283754   0.628955   x
            x  P                13         0.251418   0.077411   0.500780   x
            x  P                14         0.251418   0.578742   0.500780   x
            x  P                15         0.753647   0.696480   0.884287   x
            x  P                16         0.251418   0.755014   0.993391   x
            x  In                1         0.502680   0.121241   0.374161   x
            x  In                2         0.000000   0.239467   0.756895   x
            x  In                3         0.502680   0.535188   0.626603   x
            x  In                4         0.000000   0.740577   0.756895   x
            x  In                5         0.502680   0.033857   0.626603   x
            x  In                6         0.000000   0.828707   0.502297   x
            x  In                7         0.000000   0.327597   0.502297   x
            x  In                8         0.502680   0.448341   0.877495   x
            x  In                9         0.502680   0.622572   0.374161   x
            x  In               10         0.000000   0.414991   0.249826   x
            x  In               11         0.502680   0.710733   0.119473   x
            x  In               12         0.502680   0.949160   0.877495   x
            x  In               13         0.000000   0.916101   0.249826   x
            x  In               14         0.502680   0.209402   0.119473   x
            x  In               15         0.000000   0.000977   1.000181   x
            x  In               16         0.000000   0.502232   1.000181   x
            xxxxxxxxxxxxxxxxxxxxxxxxxxxxxxxxxxxxxxxxxxxxxxxxxxxxxxxxxxxxxxxxx


------------------------------------------------------------------------ <-- SCF
SCF loop      Energy           Fermi           Energy gain       Timer   <-- SCF
                               energy          per atom          (sec)   <-- SCF
------------------------------------------------------------------------ <-- SCF
Initial  -3.14360240E+004  0.00000000E+000                       450.86  <-- SCF
      1  -3.14374504E+004  3.38473166E+000   4.45748216E-002     473.68  <-- SCF
      2  -3.14376405E+004  3.38462587E+000   5.94104286E-003     501.56  <-- SCF
      3  -3.14376427E+004  3.38459331E+000   6.72240480E-005     525.31  <-- SCF
      4  -3.14376442E+004  3.38450974E+000   4.79162976E-005     549.48  <-- SCF
      5  -3.14376444E+004  3.38446465E+000   5.06476234E-006     576.47  <-- SCF
      6  -3.14376444E+004  3.38443577E+000   1.42130270E-006     599.91  <-- SCF
      7  -3.14376444E+004  3.38443501E+000   1.21349789E-007     620.67  <-- SCF
      8  -3.14376444E+004  3.38443372E+000   1.67932863E-008     637.32  <-- SCF
      9  -3.14376444E+004  3.38443198E+000   2.97737396E-009     653.87  <-- SCF
     10  -3.14376444E+004  3.38443001E+000   2.74554908E-010     670.25  <-- SCF
     11  -3.14376444E+004  3.38442908E+000   5.72311639E-011     686.59  <-- SCF
------------------------------------------------------------------------ <-- SCF
 
Final energy, E             =  -31437.64416884     eV
Final free energy (E-TS)    =  -31437.64443028     eV
(energies not corrected for finite basis set)
 
NB est. 0K energy (E-0.5TS)      =  -31437.64429956     eV
 

 ************************************** Forces **************************************
 *                                                                                  *
 *                           Cartesian components (eV/A)                            *
 * -------------------------------------------------------------------------------- *
 *                         x                    y                    z              *
 *                                                                                  *
 * P               1     -0.09173(cons'd)      0.00409(cons'd)      0.00677         *
 * P               2      0.48404(cons'd)      1.06927(cons'd)     -0.07440         *
 * P               3      0.45825(cons'd)     -0.97800(cons'd)      0.01672         *
 * P               4     -0.27844(cons'd)      0.11933(cons'd)      0.11480         *
 * P               5     -0.06834(cons'd)     -0.10598(cons'd)      0.01026         *
 * P               6     -0.22246(cons'd)      0.02047(cons'd)      0.11821         *
 * P               7      0.19034(cons'd)      0.10868(cons'd)      0.01654         *
 * P               8     -0.02388(cons'd)     -0.18462(cons'd)      0.00560         *
 * P               9      0.14152(cons'd)     -0.00459(cons'd)      0.01827         *
 * P              10      0.03884(cons'd)     -0.08617(cons'd)     -0.00500         *
 * P              11     -0.03499(cons'd)     -0.08522(cons'd)      0.00674         *
 * P              12     -0.01330(cons'd)      0.00508(cons'd)     -0.01434         *
 * P              13      0.10792(cons'd)      0.09246(cons'd)     -0.00683         *
 * P              14      0.06043(cons'd)     -0.01986(cons'd)     -0.00656         *
 * P              15      0.42181(cons'd)     -1.05506(cons'd)      0.01118         *
 * P              16      0.52715(cons'd)      0.98843(cons'd)     -0.07389         *
 * In              1     -0.17942(cons'd)      0.07761(cons'd)     -0.02025         *
 * In              2     -0.07683(cons'd)     -0.02088(cons'd)     -0.04910         *
 * In              3     -0.02842(cons'd)     -0.01011(cons'd)     -0.00901         *
 * In              4     -0.03915(cons'd)     -0.09053(cons'd)     -0.03273         *
 * In              5     -0.06930(cons'd)      0.09429(cons'd)     -0.00881         *
 * In              6      0.02345(cons'd)     -0.06940(cons'd)      0.01582         *
 * In              7      0.06849(cons'd)      0.00467(cons'd)      0.02112         *
 * In              8     -0.38605(cons'd)     -0.29793(cons'd)      0.03637         *
 * In              9     -0.13885(cons'd)     -0.01069(cons'd)     -0.02006         *
 * In             10      0.17567(cons'd)     -0.00109(cons'd)      0.01043         *
 * In             11     -0.18887(cons'd)      0.07416(cons'd)      0.12845         *
 * In             12     -0.42588(cons'd)     -0.34203(cons'd)      0.02569         *
 * In             13      0.12813(cons'd)     -0.07849(cons'd)      0.01215         *
 * In             14     -0.23620(cons'd)      0.16485(cons'd)      0.10252         *
 * In             15     -0.18160(cons'd)      0.35457(cons'd)     -0.17865         *
 * In             16     -0.14232(cons'd)      0.26269(cons'd)     -0.17801         *
 *                                                                                  *
 ************************************************************************************
 EXP precond LBFGS => estimated parameter mu :  1.916       eV/A**2
 LBFGS: finished iteration     0 with enthalpy= -3.14376516E+004 eV
  
 +-----------+-----------------+-----------------+------------+-----+ <-- LBFGS
 | Parameter |      value      |    tolerance    |    units   | OK? | <-- LBFGS
 +-----------+-----------------+-----------------+------------+-----+ <-- LBFGS
 |  dE/ion   |   0.000000E+000 |   2.000000E-005 |         eV | No  | <-- LBFGS
 |  |F|max   |   1.176079E+000 |   1.000000E-003 |       eV/A | No  | <-- LBFGS
 |  |dR|max  |   3.611988E-015 |   1.000000E-003 |          A | No  | <-- LBFGS
 +-----------+-----------------+-----------------+------------+-----+ <-- LBFGS
  

================================================================================
 Starting LBFGS iteration          1 ...
================================================================================
  
 +------------+-------------+-------------+-----------------+ <-- min LBFGS
 |    Step    |   lambda    |   F.delta'  |    enthalpy     | <-- min LBFGS
 +------------+-------------+-------------+-----------------+ <-- min LBFGS
 |  previous  |    0.000000 |    0.070372 |   -31437.651571 | <-- min LBFGS
 +------------+-------------+-------------+-----------------+ <-- min LBFGS
  

--------------------------------------------------------------------------------
 LBFGS: starting iteration         1 with trial guess (lambda=  1.000000)
--------------------------------------------------------------------------------

                           -------------------------------
                                     Cell Contents
                           -------------------------------

            xxxxxxxxxxxxxxxxxxxxxxxxxxxxxxxxxxxxxxxxxxxxxxxxxxxxxxxxxxxxxxxxx
            x  Element         Atom        Fractional coordinates of atoms  x
            x                 Number           u          v          w      x
            x---------------------------------------------------------------x
            x  P                 1         0.750000   0.370153   0.375114   x
            x  P                 2         0.250000   0.252758  -0.007966   x
            x  P                 3         0.750000   0.194354   0.882978   x
            x  P                 4         0.750000   0.457280   0.123415   x
            x  P                 5         0.250000   0.489853   0.751536   x
            x  P                 6         0.750000  -0.042720   0.123415   x
            x  P                 7         0.250000   0.164447   0.247153   x
            x  P                 8         0.250000  -0.010147   0.751536   x
            x  P                 9         0.250000   0.664447   0.247153   x
            x  P                10         0.750000  -0.217326   0.627832   x
            x  P                11         0.750000  -0.129847   0.375114   x
            x  P                12         0.750000   0.282674   0.627832   x
            x  P                13         0.250000   0.076950   0.499923   x
            x  P                14         0.250000   0.576950   0.499923   x
            x  P                15         0.750000  -0.305646   0.882978   x
            x  P                16         0.250000   0.752758  -0.007966   x
            x  In                1         0.500000   0.120722   0.373468   x
            x  In                2         0.000000   0.238491   0.755471   x
            x  In                3         0.500000   0.533483   0.625494   x
            x  In                4         0.000000  -0.261509   0.755471   x
            x  In                5         0.500000   0.033483   0.625494   x
            x  In                6         0.000000  -0.173615   0.501555   x
            x  In                7         0.000000   0.326385   0.501555   x
            x  In                8         0.500000   0.446611   0.876456   x
            x  In                9         0.500000   0.620723   0.373468   x
            x  In               10         0.000000   0.413632   0.249508   x
            x  In               11         0.500000   0.708629   0.119517   x
            x  In               12         0.500000  -0.053389   0.876456   x
            x  In               13         0.000000  -0.086368   0.249508   x
            x  In               14         0.500000   0.208629   0.119517   x
            x  In               15         0.000000   0.000503  -0.001453   x
            x  In               16         0.000000   0.500503  -0.001453   x
            xxxxxxxxxxxxxxxxxxxxxxxxxxxxxxxxxxxxxxxxxxxxxxxxxxxxxxxxxxxxxxxxx


------------------------------------------------------------------------ <-- SCF
SCF loop      Energy           Fermi           Energy gain       Timer   <-- SCF
                               energy          per atom          (sec)   <-- SCF
------------------------------------------------------------------------ <-- SCF
Initial  -3.14359820E+004  0.00000000E+000                       704.83  <-- SCF
      1  -3.14374497E+004  3.38599996E+000   4.58653172E-002     727.68  <-- SCF
      2  -3.14376486E+004  3.38589425E+000   6.21647669E-003     755.52  <-- SCF
      3  -3.14376509E+004  3.38600561E+000   7.14207934E-005     779.25  <-- SCF
      4  -3.14376525E+004  3.38623761E+000   5.01647230E-005     803.35  <-- SCF
      5  -3.14376527E+004  3.38627875E+000   5.03908585E-006     830.40  <-- SCF
      6  -3.14376527E+004  3.38630349E+000   1.31468549E-006     853.94  <-- SCF
      7  -3.14376527E+004  3.38631998E+000   1.52657169E-007     875.00  <-- SCF
      8  -3.14376527E+004  3.38632936E+000   1.87068567E-008     891.83  <-- SCF
      9  -3.14376527E+004  3.38633459E+000   1.61620033E-009     908.37  <-- SCF
     10  -3.14376527E+004  3.38633743E+000   9.62875663E-011     924.74  <-- SCF
     11  -3.14376527E+004  3.38633917E+000   3.67362201E-011     941.11  <-- SCF
------------------------------------------------------------------------ <-- SCF
 
Final energy, E             =  -31437.65245385     eV
Final free energy (E-TS)    =  -31437.65272513     eV
(energies not corrected for finite basis set)
 
NB est. 0K energy (E-0.5TS)      =  -31437.65258949     eV
 

 ******************************** Constrained Forces ********************************
 *                                                                                  *
 *                           Cartesian components (eV/A)                            *
 * -------------------------------------------------------------------------------- *
 *                         x                    y                    z              *
 *                                                                                  *
 * P               1      0.00000(cons'd)      0.00000(cons'd)      0.00844         *
 * P               2      0.00000(cons'd)      0.00000(cons'd)      0.01892         *
 * P               3      0.00000(cons'd)     -0.00000(cons'd)     -0.01855         *
 * P               4      0.00000(cons'd)      0.00000(cons'd)     -0.01666         *
 * P               5      0.00000(cons'd)     -0.00000(cons'd)      0.01655         *
 * P               6      0.00000(cons'd)      0.00000(cons'd)     -0.01666         *
 * P               7      0.00000(cons'd)      0.00000(cons'd)      0.00103         *
 * P               8     -0.00000(cons'd)      0.00000(cons'd)      0.01655         *
 * P               9      0.00000(cons'd)      0.00000(cons'd)      0.00103         *
 * P              10      0.00000(cons'd)     -0.00000(cons'd)      0.00000         *
 * P              11      0.00000(cons'd)      0.00000(cons'd)      0.00844         *
 * P              12      0.00000(cons'd)     -0.00000(cons'd)      0.00000         *
 * P              13      0.00000(cons'd)      0.00000(cons'd)     -0.00869         *
 * P              14      0.00000(cons'd)      0.00000(cons'd)     -0.00869         *
 * P              15      0.00000(cons'd)      0.00000(cons'd)     -0.01855         *
 * P              16      0.00000(cons'd)      0.00000(cons'd)      0.01893         *
 * In              1      0.00000(cons'd)      0.00000(cons'd)     -0.00645         *
 * In              2      0.00000(cons'd)      0.00000(cons'd)     -0.01268         *
 * In              3     -0.00000(cons'd)      0.00000(cons'd)      0.00106         *
 * In              4      0.00000(cons'd)      0.00000(cons'd)     -0.01270         *
 * In              5      0.00000(cons'd)     -0.00000(cons'd)      0.00106         *
 * In              6      0.00000(cons'd)      0.00000(cons'd)      0.00616         *
 * In              7      0.00000(cons'd)      0.00000(cons'd)      0.00616         *
 * In              8      0.00000(cons'd)      0.00000(cons'd)      0.02522         *
 * In              9      0.00000(cons'd)      0.00000(cons'd)     -0.00645         *
 * In             10      0.00000(cons'd)      0.00000(cons'd)     -0.00109         *
 * In             11      0.00000(cons'd)     -0.00000(cons'd)      0.01388         *
 * In             12      0.00000(cons'd)      0.00000(cons'd)      0.02522         *
 * In             13      0.00000(cons'd)      0.00000(cons'd)     -0.00109         *
 * In             14      0.00000(cons'd)      0.00000(cons'd)      0.01390         *
 * In             15      0.00000(cons'd)      0.00000(cons'd)     -0.02714         *
 * In             16      0.00000(cons'd)      0.00000(cons'd)     -0.02714         *
 *                                                                                  *
 ************************************************************************************
  
 +------------+-------------+-------------+-----------------+ <-- min LBFGS
 |    Step    |   lambda    |   F.delta'  |    enthalpy     | <-- min LBFGS
 +------------+-------------+-------------+-----------------+ <-- min LBFGS
 |  previous  |    0.000000 |    0.070372 |   -31437.651571 | <-- min LBFGS
 | trial step |    1.000000 |    0.028222 |   -31437.652725 | <-- min LBFGS
 +------------+-------------+-------------+-----------------+ <-- min LBFGS
  

--------------------------------------------------------------------------------
 LBFGS: improving iteration         1 with line minimization (lambda=  1.669576)
--------------------------------------------------------------------------------

                           -------------------------------
                                     Cell Contents
                           -------------------------------

            xxxxxxxxxxxxxxxxxxxxxxxxxxxxxxxxxxxxxxxxxxxxxxxxxxxxxxxxxxxxxxxxx
            x  Element         Atom        Fractional coordinates of atoms  x
            x                 Number           u          v          w      x
            x---------------------------------------------------------------x
            x  P                 1         0.750000   0.370137   0.375160   x
            x  P                 2         0.250000   0.252751  -0.007948   x
            x  P                 3         0.750000   0.194358   0.882967   x
            x  P                 4         0.750000   0.457269   0.123445   x
            x  P                 5         0.250000   0.489875   0.751472   x
            x  P                 6         0.750000  -0.042731   0.123445   x
            x  P                 7         0.250000   0.164423   0.247223   x
            x  P                 8         0.250000  -0.010125   0.751472   x
            x  P                 9         0.250000   0.664423   0.247223   x
            x  P                10         0.750000  -0.217299   0.627751   x
            x  P                11         0.750000  -0.129863   0.375160   x
            x  P                12         0.750000   0.282701   0.627751   x
            x  P                13         0.250000   0.076957   0.499903   x
            x  P                14         0.250000   0.576957   0.499903   x
            x  P                15         0.750000  -0.305642   0.882967   x
            x  P                16         0.250000   0.752751  -0.007948   x
            x  In                1         0.500000   0.120737   0.373427   x
            x  In                2         0.000000   0.238552   0.755294   x
            x  In                3         0.500000   0.533508   0.625421   x
            x  In                4         0.000000  -0.261448   0.755294   x
            x  In                5         0.500000   0.033508   0.625421   x
            x  In                6         0.000000  -0.173635   0.501612   x
            x  In                7         0.000000   0.326365   0.501612   x
            x  In                8         0.500000   0.446554   0.876622   x
            x  In                9         0.500000   0.620737   0.373427   x
            x  In               10         0.000000   0.413606   0.249582   x
            x  In               11         0.500000   0.708570   0.119686   x
            x  In               12         0.500000  -0.053446   0.876622   x
            x  In               13         0.000000  -0.086394   0.249582   x
            x  In               14         0.500000   0.208570   0.119686   x
            x  In               15         0.000000   0.000560  -0.001617   x
            x  In               16         0.000000   0.500560  -0.001617   x
            xxxxxxxxxxxxxxxxxxxxxxxxxxxxxxxxxxxxxxxxxxxxxxxxxxxxxxxxxxxxxxxxx


------------------------------------------------------------------------ <-- SCF
SCF loop      Energy           Fermi           Energy gain       Timer   <-- SCF
                               energy          per atom          (sec)   <-- SCF
------------------------------------------------------------------------ <-- SCF
Initial  -3.14376292E+004  0.00000000E+000                       959.31  <-- SCF
      1  -3.14376516E+004  3.38638160E+000   7.00677333E-004     982.15  <-- SCF
      2  -3.14376529E+004  3.38638139E+000   4.02760553E-005    1010.35  <-- SCF
      3  -3.14376529E+004  3.38632628E+000   4.88580899E-007    1034.01  <-- SCF
      4  -3.14376529E+004  3.38631055E+000   2.18159590E-007    1056.51  <-- SCF
      5  -3.14376529E+004  3.38632004E+000   1.69417780E-008    1073.05  <-- SCF
      6  -3.14376529E+004  3.38632784E+000   3.63147203E-009    1089.41  <-- SCF
      7  -3.14376529E+004  3.38633010E+000   7.14036109E-010    1105.68  <-- SCF
------------------------------------------------------------------------ <-- SCF
 
Final energy, E             =  -31437.65267407     eV
Final free energy (E-TS)    =  -31437.65294663     eV
(energies not corrected for finite basis set)
 
NB est. 0K energy (E-0.5TS)      =  -31437.65281035     eV
 

 ******************************** Constrained Forces ********************************
 *                                                                                  *
 *                           Cartesian components (eV/A)                            *
 * -------------------------------------------------------------------------------- *
 *                         x                    y                    z              *
 *                                                                                  *
 * P               1      0.00000(cons'd)      0.00000(cons'd)      0.00840         *
 * P               2      0.00000(cons'd)      0.00000(cons'd)      0.02842         *
 * P               3      0.00000(cons'd)      0.00000(cons'd)     -0.02981         *
 * P               4      0.00000(cons'd)      0.00000(cons'd)     -0.02411         *
 * P               5     -0.00000(cons'd)      0.00000(cons'd)      0.02932         *
 * P               6      0.00000(cons'd)      0.00000(cons'd)     -0.02411         *
 * P               7      0.00000(cons'd)      0.00000(cons'd)     -0.00122         *
 * P               8      0.00000(cons'd)     -0.00000(cons'd)      0.02932         *
 * P               9      0.00000(cons'd)      0.00000(cons'd)     -0.00122         *
 * P              10      0.00000(cons'd)      0.00000(cons'd)      0.00499         *
 * P              11      0.00000(cons'd)      0.00000(cons'd)      0.00840         *
 * P              12      0.00000(cons'd)      0.00000(cons'd)      0.00499         *
 * P              13      0.00000(cons'd)      0.00000(cons'd)     -0.01190         *
 * P              14      0.00000(cons'd)      0.00000(cons'd)     -0.01190         *
 * P              15      0.00000(cons'd)     -0.00000(cons'd)     -0.02981         *
 * P              16      0.00000(cons'd)      0.00000(cons'd)      0.02842         *
 * In              1      0.00000(cons'd)      0.00000(cons'd)      0.00269         *
 * In              2      0.00000(cons'd)      0.00000(cons'd)      0.00272         *
 * In              3      0.00000(cons'd)     -0.00000(cons'd)      0.00632         *
 * In              4      0.00000(cons'd)      0.00000(cons'd)      0.00272         *
 * In              5      0.00000(cons'd)     -0.00000(cons'd)      0.00632         *
 * In              6      0.00000(cons'd)     -0.00000(cons'd)     -0.00374         *
 * In              7      0.00000(cons'd)      0.00000(cons'd)     -0.00374         *
 * In              8      0.00000(cons'd)      0.00000(cons'd)      0.00776         *
 * In              9      0.00000(cons'd)      0.00000(cons'd)      0.00270         *
 * In             10      0.00000(cons'd)      0.00000(cons'd)     -0.00705         *
 * In             11      0.00000(cons'd)      0.00000(cons'd)     -0.00120         *
 * In             12      0.00000(cons'd)      0.00000(cons'd)      0.00776         *
 * In             13     -0.00000(cons'd)      0.00000(cons'd)     -0.00705         *
 * In             14      0.00000(cons'd)      0.00000(cons'd)     -0.00120         *
 * In             15      0.00000(cons'd)      0.00000(cons'd)     -0.01159         *
 * In             16      0.00000(cons'd)      0.00000(cons'd)     -0.01159         *
 *                                                                                  *
 ************************************************************************************
  
 +------------+-------------+-------------+-----------------+ <-- min LBFGS
 |    Step    |   lambda    |   F.delta'  |    enthalpy     | <-- min LBFGS
 +------------+-------------+-------------+-----------------+ <-- min LBFGS
 |  previous  |    0.000000 |    0.070372 |   -31437.651571 | <-- min LBFGS
 | trial step |    1.000000 |    0.028222 |   -31437.652725 | <-- min LBFGS
 |  line step |    1.669576 |   -0.000897 |   -31437.652947 | <-- min LBFGS
 +------------+-------------+-------------+-----------------+ <-- min LBFGS
  
 LBFGS: finished iteration     1 with enthalpy= -3.14376529E+004 eV
  
 +-----------+-----------------+-----------------+------------+-----+ <-- LBFGS
 | Parameter |      value      |    tolerance    |    units   | OK? | <-- LBFGS
 +-----------+-----------------+-----------------+------------+-----+ <-- LBFGS
 |  dE/ion   |   4.299936E-005 |   2.000000E-005 |         eV | No  | <-- LBFGS
 |  |F|max   |   2.981109E-002 |   1.000000E-003 |       eV/A | No  | <-- LBFGS
 |  |dR|max  |   7.347018E-003 |   1.000000E-003 |          A | No  | <-- LBFGS
 +-----------+-----------------+-----------------+------------+-----+ <-- LBFGS
  

================================================================================
 Starting LBFGS iteration          2 ...
================================================================================
  
 +------------+-------------+-------------+-----------------+ <-- min LBFGS
 |    Step    |   lambda    |   F.delta'  |    enthalpy     | <-- min LBFGS
 +------------+-------------+-------------+-----------------+ <-- min LBFGS
 |  previous  |    0.000000 |    0.042578 |   -31437.652947 | <-- min LBFGS
 +------------+-------------+-------------+-----------------+ <-- min LBFGS
  

--------------------------------------------------------------------------------
 LBFGS: starting iteration         2 with trial guess (lambda=  1.000000)
--------------------------------------------------------------------------------

                           -------------------------------
                                     Cell Contents
                           -------------------------------

            xxxxxxxxxxxxxxxxxxxxxxxxxxxxxxxxxxxxxxxxxxxxxxxxxxxxxxxxxxxxxxxxx
            x  Element         Atom        Fractional coordinates of atoms  x
            x                 Number           u          v          w      x
            x---------------------------------------------------------------x
            x  P                 1         0.750000   0.370122   0.375203   x
            x  P                 2         0.250000   0.252708  -0.007823   x
            x  P                 3         0.750000   0.194403   0.882835   x
            x  P                 4         0.750000   0.457337   0.123250   x
            x  P                 5         0.250000   0.489804   0.751676   x
            x  P                 6         0.750000  -0.042664   0.123250   x
            x  P                 7         0.250000   0.164435   0.247187   x
            x  P                 8         0.250000  -0.010196   0.751676   x
            x  P                 9         0.250000   0.664435   0.247187   x
            x  P                10         0.750000  -0.217317   0.627803   x
            x  P                11         0.750000  -0.129878   0.375203   x
            x  P                12         0.750000   0.282684   0.627803   x
            x  P                13         0.250000   0.076975   0.499851   x
            x  P                14         0.250000   0.576975   0.499851   x
            x  P                15         0.750000  -0.305597   0.882835   x
            x  P                16         0.250000   0.752708  -0.007823   x
            x  In                1         0.500000   0.120752   0.373384   x
            x  In                2         0.000000   0.238555   0.755284   x
            x  In                3         0.500000   0.533483   0.625493   x
            x  In                4         0.000000  -0.261445   0.755284   x
            x  In                5         0.500000   0.033483   0.625493   x
            x  In                6         0.000000  -0.173648   0.501650   x
            x  In                7         0.000000   0.326352   0.501650   x
            x  In                8         0.500000   0.446490   0.876807   x
            x  In                9         0.500000   0.620752   0.373384   x
            x  In               10         0.000000   0.413630   0.249513   x
            x  In               11         0.500000   0.708562   0.119709   x
            x  In               12         0.500000  -0.053510   0.876807   x
            x  In               13        -0.000000  -0.086370   0.249513   x
            x  In               14         0.500000   0.208562   0.119709   x
            x  In               15         0.000000   0.000631  -0.001822   x
            x  In               16         0.000000   0.500631  -0.001822   x
            xxxxxxxxxxxxxxxxxxxxxxxxxxxxxxxxxxxxxxxxxxxxxxxxxxxxxxxxxxxxxxxxx


------------------------------------------------------------------------ <-- SCF
SCF loop      Energy           Fermi           Energy gain       Timer   <-- SCF
                               energy          per atom          (sec)   <-- SCF
------------------------------------------------------------------------ <-- SCF
Initial  -3.14376557E+004  0.00000000E+000                      1123.88  <-- SCF
      1  -3.14376526E+004  3.38582016E+000  -9.67706275E-005    1146.70  <-- SCF
      2  -3.14376535E+004  3.38581969E+000   2.86282882E-005    1174.48  <-- SCF
      3  -3.14376535E+004  3.38583959E+000   1.35017016E-007    1198.15  <-- SCF
      4  -3.14376535E+004  3.38587496E+000   1.17626283E-007    1220.35  <-- SCF
      5  -3.14376535E+004  3.38589096E+000   2.41366633E-008    1237.01  <-- SCF
      6  -3.14376535E+004  3.38590111E+000   3.24013461E-009    1253.40  <-- SCF
      7  -3.14376535E+004  3.38590639E+000   1.20649481E-010    1269.59  <-- SCF
------------------------------------------------------------------------ <-- SCF
 
Final energy, E             =  -31437.65327520     eV
Final free energy (E-TS)    =  -31437.65354868     eV
(energies not corrected for finite basis set)
 
NB est. 0K energy (E-0.5TS)      =  -31437.65341194     eV
 

 ******************************** Constrained Forces ********************************
 *                                                                                  *
 *                           Cartesian components (eV/A)                            *
 * -------------------------------------------------------------------------------- *
 *                         x                    y                    z              *
 *                                                                                  *
 * P               1      0.00000(cons'd)      0.00000(cons'd)     -0.00315         *
 * P               2      0.00000(cons'd)      0.00000(cons'd)      0.01775         *
 * P               3      0.00000(cons'd)     -0.00000(cons'd)     -0.01722         *
 * P               4      0.00000(cons'd)      0.00000(cons'd)     -0.00879         *
 * P               5     -0.00000(cons'd)      0.00000(cons'd)      0.01202         *
 * P               6      0.00000(cons'd)      0.00000(cons'd)     -0.00879         *
 * P               7      0.00000(cons'd)      0.00000(cons'd)      0.00192         *
 * P               8     -0.00000(cons'd)      0.00000(cons'd)      0.01202         *
 * P               9      0.00000(cons'd)      0.00000(cons'd)      0.00192         *
 * P              10      0.00000(cons'd)     -0.00000(cons'd)     -0.00068         *
 * P              11      0.00000(cons'd)      0.00000(cons'd)     -0.00315         *
 * P              12      0.00000(cons'd)     -0.00000(cons'd)     -0.00068         *
 * P              13      0.00000(cons'd)      0.00000(cons'd)      0.00157         *
 * P              14      0.00000(cons'd)      0.00000(cons'd)      0.00157         *
 * P              15      0.00000(cons'd)     -0.00000(cons'd)     -0.01722         *
 * P              16      0.00000(cons'd)      0.00000(cons'd)      0.01775         *
 * In              1      0.00000(cons'd)      0.00000(cons'd)      0.00402         *
 * In              2      0.00000(cons'd)      0.00000(cons'd)     -0.00011         *
 * In              3      0.00000(cons'd)     -0.00000(cons'd)      0.00620         *
 * In              4      0.00000(cons'd)      0.00000(cons'd)     -0.00011         *
 * In              5      0.00000(cons'd)      0.00000(cons'd)      0.00620         *
 * In              6      0.00000(cons'd)      0.00000(cons'd)     -0.00434         *
 * In              7      0.00000(cons'd)      0.00000(cons'd)     -0.00434         *
 * In              8      0.00000(cons'd)      0.00000(cons'd)      0.00585         *
 * In              9      0.00000(cons'd)      0.00000(cons'd)      0.00402         *
 * In             10      0.00000(cons'd)      0.00000(cons'd)     -0.00774         *
 * In             11      0.00000(cons'd)     -0.00000(cons'd)      0.00023         *
 * In             12      0.00000(cons'd)      0.00000(cons'd)      0.00585         *
 * In             13      0.00000(cons'd)      0.00000(cons'd)     -0.00774         *
 * In             14      0.00000(cons'd)     -0.00000(cons'd)      0.00023         *
 * In             15      0.00000(cons'd)      0.00000(cons'd)     -0.00752         *
 * In             16      0.00000(cons'd)      0.00000(cons'd)     -0.00752         *
 *                                                                                  *
 ************************************************************************************
  
 +------------+-------------+-------------+-----------------+ <-- min LBFGS
 |    Step    |   lambda    |   F.delta'  |    enthalpy     | <-- min LBFGS
 +------------+-------------+-------------+-----------------+ <-- min LBFGS
 |  previous  |    0.000000 |    0.042578 |   -31437.652947 | <-- min LBFGS
 | trial step |    1.000000 |    0.020687 |   -31437.653549 | <-- min LBFGS
 +------------+-------------+-------------+-----------------+ <-- min LBFGS
  

--------------------------------------------------------------------------------
 LBFGS: improving iteration         2 with line minimization (lambda=  1.944991)
--------------------------------------------------------------------------------

                           -------------------------------
                                     Cell Contents
                           -------------------------------

            xxxxxxxxxxxxxxxxxxxxxxxxxxxxxxxxxxxxxxxxxxxxxxxxxxxxxxxxxxxxxxxxx
            x  Element         Atom        Fractional coordinates of atoms  x
            x                 Number           u          v          w      x
            x---------------------------------------------------------------x
            x  P                 1         0.750000   0.370108   0.375244   x
            x  P                 2         0.250000   0.252667  -0.007705   x
            x  P                 3         0.750000   0.194447   0.882710   x
            x  P                 4         0.750000   0.457400   0.123066   x
            x  P                 5         0.250000   0.489738   0.751869   x
            x  P                 6         0.750000  -0.042600   0.123066   x
            x  P                 7         0.250000   0.164447   0.247152   x
            x  P                 8         0.250000  -0.010262   0.751869   x
            x  P                 9         0.250000   0.664447   0.247152   x
            x  P                10         0.750000  -0.217333   0.627852   x
            x  P                11         0.750000  -0.129892   0.375244   x
            x  P                12         0.750000   0.282667   0.627852   x
            x  P                13         0.250000   0.076992   0.499802   x
            x  P                14         0.250000   0.576992   0.499802   x
            x  P                15         0.750000  -0.305553   0.882710   x
            x  P                16         0.250000   0.752667  -0.007705   x
            x  In                1         0.500000   0.120766   0.373343   x
            x  In                2         0.000000   0.238559   0.755275   x
            x  In                3         0.500000   0.533459   0.625562   x
            x  In                4         0.000000  -0.261441   0.755275   x
            x  In                5         0.500000   0.033459   0.625562   x
            x  In                6         0.000000  -0.173661   0.501686   x
            x  In                7         0.000000   0.326339   0.501686   x
            x  In                8         0.500000   0.446429   0.876982   x
            x  In                9         0.500000   0.620766   0.373343   x
            x  In               10         0.000000   0.413652   0.249449   x
            x  In               11         0.500000   0.708555   0.119731   x
            x  In               12         0.500000  -0.053571   0.876982   x
            x  In               13        -0.000000  -0.086348   0.249449   x
            x  In               14         0.500000   0.208555   0.119731   x
            x  In               15         0.000000   0.000698  -0.002016   x
            x  In               16         0.000000   0.500698  -0.002016   x
            xxxxxxxxxxxxxxxxxxxxxxxxxxxxxxxxxxxxxxxxxxxxxxxxxxxxxxxxxxxxxxxxx


------------------------------------------------------------------------ <-- SCF
SCF loop      Energy           Fermi           Energy gain       Timer   <-- SCF
                               energy          per atom          (sec)   <-- SCF
------------------------------------------------------------------------ <-- SCF
Initial  -3.14376561E+004  0.00000000E+000                      1287.79  <-- SCF
      1  -3.14376529E+004  3.38543163E+000  -1.00302668E-004    1310.64  <-- SCF
      2  -3.14376537E+004  3.38543121E+000   2.55303334E-005    1338.46  <-- SCF
      3  -3.14376537E+004  3.38544909E+000   1.18442214E-007    1362.09  <-- SCF
      4  -3.14376537E+004  3.38548229E+000   1.03631523E-007    1384.30  <-- SCF
      5  -3.14376537E+004  3.38549799E+000   2.12370155E-008    1400.87  <-- SCF
      6  -3.14376537E+004  3.38550819E+000   2.78421878E-009    1417.19  <-- SCF
      7  -3.14376537E+004  3.38551365E+000   5.74245124E-011    1433.40  <-- SCF
------------------------------------------------------------------------ <-- SCF
 
Final energy, E             =  -31437.65347326     eV
Final free energy (E-TS)    =  -31437.65374762     eV
(energies not corrected for finite basis set)
 
NB est. 0K energy (E-0.5TS)      =  -31437.65361044     eV
 

 ******************************** Constrained Forces ********************************
 *                                                                                  *
 *                           Cartesian components (eV/A)                            *
 * -------------------------------------------------------------------------------- *
 *                         x                    y                    z              *
 *                                                                                  *
 * P               1      0.00000(cons'd)      0.00000(cons'd)     -0.01402         *
 * P               2      0.00000(cons'd)      0.00000(cons'd)      0.00768         *
 * P               3      0.00000(cons'd)     -0.00000(cons'd)     -0.00549         *
 * P               4      0.00000(cons'd)      0.00000(cons'd)      0.00561         *
 * P               5     -0.00000(cons'd)      0.00000(cons'd)     -0.00385         *
 * P               6      0.00000(cons'd)      0.00000(cons'd)      0.00561         *
 * P               7      0.00000(cons'd)      0.00000(cons'd)      0.00479         *
 * P               8     -0.00000(cons'd)      0.00000(cons'd)     -0.00385         *
 * P               9      0.00000(cons'd)      0.00000(cons'd)      0.00479         *
 * P              10      0.00000(cons'd)     -0.00000(cons'd)     -0.00594         *
 * P              11      0.00000(cons'd)      0.00000(cons'd)     -0.01402         *
 * P              12      0.00000(cons'd)      0.00000(cons'd)     -0.00594         *
 * P              13      0.00000(cons'd)      0.00000(cons'd)      0.01425         *
 * P              14      0.00000(cons'd)      0.00000(cons'd)      0.01425         *
 * P              15      0.00000(cons'd)     -0.00000(cons'd)     -0.00549         *
 * P              16      0.00000(cons'd)      0.00000(cons'd)      0.00768         *
 * In              1      0.00000(cons'd)      0.00000(cons'd)      0.00533         *
 * In              2      0.00000(cons'd)      0.00000(cons'd)     -0.00235         *
 * In              3      0.00000(cons'd)     -0.00000(cons'd)      0.00665         *
 * In              4      0.00000(cons'd)      0.00000(cons'd)     -0.00235         *
 * In              5      0.00000(cons'd)     -0.00000(cons'd)      0.00665         *
 * In              6      0.00000(cons'd)      0.00000(cons'd)     -0.00510         *
 * In              7      0.00000(cons'd)      0.00000(cons'd)     -0.00510         *
 * In              8      0.00000(cons'd)      0.00000(cons'd)      0.00410         *
 * In              9      0.00000(cons'd)      0.00000(cons'd)      0.00533         *
 * In             10      0.00000(cons'd)      0.00000(cons'd)     -0.00898         *
 * In             11      0.00000(cons'd)     -0.00000(cons'd)      0.00117         *
 * In             12      0.00000(cons'd)      0.00000(cons'd)      0.00410         *
 * In             13      0.00000(cons'd)      0.00000(cons'd)     -0.00898         *
 * In             14      0.00000(cons'd)      0.00000(cons'd)      0.00117         *
 * In             15      0.00000(cons'd)      0.00000(cons'd)     -0.00385         *
 * In             16      0.00000(cons'd)      0.00000(cons'd)     -0.00385         *
 *                                                                                  *
 ************************************************************************************
  
 +------------+-------------+-------------+-----------------+ <-- min LBFGS
 |    Step    |   lambda    |   F.delta'  |    enthalpy     | <-- min LBFGS
 +------------+-------------+-------------+-----------------+ <-- min LBFGS
 |  previous  |    0.000000 |    0.042578 |   -31437.652947 | <-- min LBFGS
 | trial step |    1.000000 |    0.020687 |   -31437.653549 | <-- min LBFGS
 |  line step |    1.944991 |    0.000449 |   -31437.653748 | <-- min LBFGS
 +------------+-------------+-------------+-----------------+ <-- min LBFGS
  
 LBFGS: finished iteration     2 with enthalpy= -3.14376537E+004 eV
  
 +-----------+-----------------+-----------------+------------+-----+ <-- LBFGS
 | Parameter |      value      |    tolerance    |    units   | OK? | <-- LBFGS
 +-----------+-----------------+-----------------+------------+-----+ <-- LBFGS
 |  dE/ion   |   2.503109E-005 |   2.000000E-005 |         eV | No  | <-- LBFGS
 |  |F|max   |   1.425045E-002 |   1.000000E-003 |       eV/A | No  | <-- LBFGS
 |  |dR|max  |   6.661735E-003 |   1.000000E-003 |          A | No  | <-- LBFGS
 +-----------+-----------------+-----------------+------------+-----+ <-- LBFGS
  

================================================================================
 Starting LBFGS iteration          3 ...
================================================================================
  
 +------------+-------------+-------------+-----------------+ <-- min LBFGS
 |    Step    |   lambda    |   F.delta'  |    enthalpy     | <-- min LBFGS
 +------------+-------------+-------------+-----------------+ <-- min LBFGS
 |  previous  |    0.000000 |    0.019494 |   -31437.653748 | <-- min LBFGS
 +------------+-------------+-------------+-----------------+ <-- min LBFGS
  

--------------------------------------------------------------------------------
 LBFGS: starting iteration         3 with trial guess (lambda=  1.000000)
--------------------------------------------------------------------------------

                           -------------------------------
                                     Cell Contents
                           -------------------------------

            xxxxxxxxxxxxxxxxxxxxxxxxxxxxxxxxxxxxxxxxxxxxxxxxxxxxxxxxxxxxxxxxx
            x  Element         Atom        Fractional coordinates of atoms  x
            x                 Number           u          v          w      x
            x---------------------------------------------------------------x
[...]
 * In             15      0.00000(cons'd)      0.00000(cons'd)     -0.00048         *
 * In             16      0.00000(cons'd)      0.00000(cons'd)     -0.00048         *
 *                                                                                  *
 ************************************************************************************

 Pseudo atomic calculation performed for P 3s2 3p3

 Converged in 23 iterations to a total energy of -208.0292 eV

 Pseudo atomic calculation performed for In 4d10 5s2 5p1

 Converged in 42 iterations to a total energy of -1747.4500 eV
Charge spilling parameter for spin component 1 = 0.16%

            Orbital Populations       
     Ion    Atom   Orbital             Charge
  -------------------------------------------
      P     1      S                    1.738
      P     1      Px                   1.313
      P     1      Py                   1.312
      P     1      Pz                   1.310
      P     2      S                    1.763
      P     2      Px                   1.299
      P     2      Py                   1.247
      P     2      Pz                   1.333
      P     3      S                    1.763
      P     3      Px                   1.299
      P     3      Py                   1.247
      P     3      Pz                   1.333
      P     4      S                    1.738
      P     4      Px                   1.311
      P     4      Py                   1.315
      P     4      Pz                   1.303
      P     5      S                    1.738
      P     5      Px                   1.311
      P     5      Py                   1.315
      P     5      Pz                   1.303
      P     6      S                    1.738
      P     6      Px                   1.311
      P     6      Py                   1.315
      P     6      Pz                   1.303
      P     7      S                    1.739
      P     7      Px                   1.311
      P     7      Py                   1.308
      P     7      Pz                   1.310
      P     8      S                    1.738
      P     8      Px                   1.311
      P     8      Py                   1.315
      P     8      Pz                   1.303
      P     9      S                    1.739
      P     9      Px                   1.311
      P     9      Py                   1.308
      P     9      Pz                   1.310
      P    10      S                    1.739
      P    10      Px                   1.311
      P    10      Py                   1.308
      P    10      Pz                   1.310
      P    11      S                    1.738
      P    11      Px                   1.313
      P    11      Py                   1.312
      P    11      Pz                   1.310
      P    12      S                    1.739
      P    12      Px                   1.311
      P    12      Py                   1.308
      P    12      Pz                   1.310
      P    13      S                    1.738
      P    13      Px                   1.313
      P    13      Py                   1.312
      P    13      Pz                   1.310
      P    14      S                    1.738
      P    14      Px                   1.313
      P    14      Py                   1.312
      P    14      Pz                   1.310
      P    15      S                    1.763
      P    15      Px                   1.299
      P    15      Py                   1.247
      P    15      Pz                   1.333
      P    16      S                    1.763
      P    16      Px                   1.299
      P    16      Py                   1.247
      P    16      Pz                   1.333
     In     1      Dzz                  1.998
     In     1      Dzy                  1.999
     In     1      Dzx                  1.997
     In     1      Dxx-yy               1.999
     In     1      Dxy                  1.997
     In     1      S                    1.426
     In     1      Px                   0.480
     In     1      Py                   0.481
     In     1      Pz                   0.480
     In     1      S                   -0.520
     In     2      Dzz                  1.998
     In     2      Dzy                  1.999
     In     2      Dzx                  1.997
     In     2      Dxx-yy               1.999
     In     2      Dxy                  1.997
     In     2      S                    1.425
     In     2      Px                   0.481
     In     2      Py                   0.476
     In     2      Pz                   0.485
     In     2      S                   -0.503
     In     3      Dzz                  1.998
     In     3      Dzy                  1.999
     In     3      Dzx                  1.997
     In     3      Dxx-yy               1.999
     In     3      Dxy                  1.997
     In     3      S                    1.429
     In     3      Px                   0.479
     In     3      Py                   0.483
     In     3      Pz                   0.478
     In     3      S                   -0.526
     In     4      Dzz                  1.998
     In     4      Dzy                  1.999
     In     4      Dzx                  1.997
     In     4      Dxx-yy               1.999
     In     4      Dxy                  1.997
     In     4      S                    1.425
     In     4      Px                   0.481
     In     4      Py                   0.476
     In     4      Pz                   0.485
     In     4      S                   -0.503
     In     5      Dzz                  1.998
     In     5      Dzy                  1.999
     In     5      Dzx                  1.997
     In     5      Dxx-yy               1.999
     In     5      Dxy                  1.997
     In     5      S                    1.429
     In     5      Px                   0.479
     In     5      Py                   0.483
     In     5      Pz                   0.478
     In     5      S                   -0.526
     In     6      Dzz                  1.998
     In     6      Dzy                  1.999
     In     6      Dzx                  1.997
     In     6      Dxx-yy               1.999
     In     6      Dxy                  1.997
     In     6      S                    1.426
     In     6      Px                   0.480
     In     6      Py                   0.481
     In     6      Pz                   0.480
     In     6      S                   -0.520
     In     7      Dzz                  1.998
     In     7      Dzy                  1.999
     In     7      Dzx                  1.997
     In     7      Dxx-yy               1.999
     In     7      Dxy                  1.997
     In     7      S                    1.426
     In     7      Px                   0.480
     In     7      Py                   0.481
     In     7      Pz                   0.480
     In     7      S                   -0.520
     In     8      Dzz                  1.998
     In     8      Dzy                  1.999
     In     8      Dzx                  1.998
     In     8      Dxx-yy               1.999
     In     8      Dxy                  1.997
     In     8      S                    1.390
     In     8      Px                   0.466
     In     8      Py                   0.487
     In     8      Pz                   0.444
     In     8      S                   -0.452
     In     9      Dzz                  1.998
     In     9      Dzy                  1.999
     In     9      Dzx                  1.997
     In     9      Dxx-yy               1.999
     In     9      Dxy                  1.997
     In     9      S                    1.426
     In     9      Px                   0.480
     In     9      Py                   0.481
     In     9      Pz                   0.480
     In     9      S                   -0.520
     In    10      Dzz                  1.998
     In    10      Dzy                  1.999
     In    10      Dzx                  1.997
     In    10      Dxx-yy               1.999
     In    10      Dxy                  1.997
     In    10      S                    1.429
     In    10      Px                   0.479
     In    10      Py                   0.483
     In    10      Pz                   0.478
     In    10      S                   -0.526
     In    11      Dzz                  1.998
     In    11      Dzy                  1.999
     In    11      Dzx                  1.997
     In    11      Dxx-yy               1.999
     In    11      Dxy                  1.997
     In    11      S                    1.425
     In    11      Px                   0.481
     In    11      Py                   0.476
     In    11      Pz                   0.485
     In    11      S                   -0.503
     In    12      Dzz                  1.998
     In    12      Dzy                  1.999
     In    12      Dzx                  1.998
     In    12      Dxx-yy               1.999
     In    12      Dxy                  1.997
     In    12      S                    1.390
     In    12      Px                   0.466
     In    12      Py                   0.487
     In    12      Pz                   0.444
     In    12      S                   -0.452
     In    13      Dzz                  1.998
     In    13      Dzy                  1.999
     In    13      Dzx                  1.997
     In    13      Dxx-yy               1.999
     In    13      Dxy                  1.997
     In    13      S                    1.429
     In    13      Px                   0.479
     In    13      Py                   0.483
     In    13      Pz                   0.478
     In    13      S                   -0.526
     In    14      Dzz                  1.998
     In    14      Dzy                  1.999
     In    14      Dzx                  1.997
     In    14      Dxx-yy               1.999
     In    14      Dxy                  1.997
     In    14      S                    1.425
     In    14      Px                   0.481
     In    14      Py                   0.476
     In    14      Pz                   0.485
     In    14      S                   -0.503
     In    15      Dzz                  1.998
     In    15      Dzy                  1.999
     In    15      Dzx                  1.998
     In    15      Dxx-yy               1.999
     In    15      Dxy                  1.997
     In    15      S                    1.390
     In    15      Px                   0.466
     In    15      Py                   0.487
     In    15      Pz                   0.444
     In    15      S                   -0.452
     In    16      Dzz                  1.998
     In    16      Dzy                  1.999
     In    16      Dzx                  1.998
     In    16      Dxx-yy               1.999
     In    16      Dxy                  1.997
     In    16      S                    1.390
     In    16      Px                   0.466
     In    16      Py                   0.487
     In    16      Pz                   0.444
     In    16      S                   -0.452
  -------------------------------------------
                           Total:     288.000
  -------------------------------------------

     Atomic Populations (Mulliken)
     -----------------------------
Species          Ion     s       p       d       f      Total   Charge (e)
==========================================================================
  P               1     1.738   3.935   0.000   0.000   5.673    -0.673
  P               2     1.763   3.879   0.000   0.000   5.642    -0.642
  P               3     1.763   3.879   0.000   0.000   5.642    -0.642
  P               4     1.738   3.930   0.000   0.000   5.668    -0.668
  P               5     1.738   3.930   0.000   0.000   5.668    -0.668
  P               6     1.738   3.930   0.000   0.000   5.668    -0.668
  P               7     1.739   3.930   0.000   0.000   5.669    -0.669
  P               8     1.738   3.930   0.000   0.000   5.668    -0.668
  P               9     1.739   3.930   0.000   0.000   5.669    -0.669
  P              10     1.739   3.930   0.000   0.000   5.669    -0.669
  P              11     1.738   3.935   0.000   0.000   5.673    -0.673
  P              12     1.739   3.930   0.000   0.000   5.669    -0.669
  P              13     1.738   3.935   0.000   0.000   5.673    -0.673
  P              14     1.738   3.935   0.000   0.000   5.673    -0.673
  P              15     1.763   3.879   0.000   0.000   5.642    -0.642
  P              16     1.763   3.879   0.000   0.000   5.642    -0.642
  In              1     0.905   1.442   9.990   0.000  12.337     0.663
  In              2     0.922   1.441   9.990   0.000  12.352     0.648
  In              3     0.903   1.441   9.989   0.000  12.333     0.667
  In              4     0.922   1.441   9.990   0.000  12.352     0.648
  In              5     0.903   1.441   9.989   0.000  12.333     0.667
  In              6     0.905   1.442   9.990   0.000  12.337     0.663
  In              7     0.905   1.442   9.990   0.000  12.337     0.663
  In              8     0.938   1.397   9.990   0.000  12.326     0.674
  In              9     0.905   1.442   9.990   0.000  12.337     0.663
  In             10     0.903   1.440   9.990   0.000  12.333     0.667
  In             11     0.922   1.441   9.990   0.000  12.352     0.648
  In             12     0.938   1.397   9.990   0.000  12.326     0.674
  In             13     0.903   1.440   9.990   0.000  12.333     0.667
  In             14     0.922   1.441   9.990   0.000  12.352     0.648
  In             15     0.938   1.398   9.990   0.000  12.326     0.674
  In             16     0.938   1.398   9.990   0.000  12.326     0.674
==========================================================================

                 Bond                   Population      Length (A)
======================================================================
              P 14 -- In 6                   0.62        2.55543
              P 13 -- In 6                   0.63        2.55543
              P 14 -- In 7                   0.63        2.55543
              P 11 -- In 9                   0.62        2.55543
              P 11 -- In 1                   0.63        2.55543
              P 1  -- In 9                   0.63        2.55543
              P 13 -- In 7                   0.62        2.55543
              P 1  -- In 1                   0.62        2.55543
              P 9  -- In 13                  0.62        2.55551
              P 7  -- In 13                  0.63        2.55551
              P 9  -- In 10                  0.63        2.55551
              P 7  -- In 10                  0.62        2.55551
              P 10 -- In 3                   0.62        2.55551
              P 12 -- In 3                   0.63        2.55551
              P 10 -- In 5                   0.63        2.55551
              P 12 -- In 5                   0.62        2.55551
              P 6  -- In 11                  0.58        2.55581
              P 6  -- In 14                  0.61        2.55581
              P 4  -- In 11                  0.61        2.55581
              P 4  -- In 14                  0.58        2.55581
              P 5  -- In 4                   0.58        2.55583
              P 5  -- In 2                   0.61        2.55583
              P 8  -- In 4                   0.61        2.55583
              P 8  -- In 2                   0.58        2.55583
              P 2  -- In 15                  0.60        2.55684
              P 16 -- In 15                  0.68        2.55684
              P 16 -- In 16                  0.60        2.55684
              P 2  -- In 16                  0.68        2.55684
              P 3  -- In 8                   0.60        2.55688
              P 15 -- In 8                   0.68        2.55688
              P 15 -- In 12                  0.60        2.55688
              P 3  -- In 12                  0.68        2.55688
              P 4  -- In 16                  0.64        2.55734
              P 6  -- In 15                  0.64        2.55734
              P 8  -- In 12                  0.64        2.55790
              P 5  -- In 8                   0.64        2.55790
              P 13 -- In 5                   0.61        2.56576
              P 14 -- In 3                   0.61        2.56576
              P 1  -- In 10                  0.61        2.56613
              P 11 -- In 13                  0.61        2.56613
              P 8  -- In 5                   0.61        2.57182
              P 5  -- In 3                   0.61        2.57182
              P 12 -- In 7                   0.61        2.57220
              P 10 -- In 6                   0.61        2.57220
              P 4  -- In 10                  0.61        2.57223
              P 6  -- In 13                  0.61        2.57223
              P 9  -- In 9                   0.61        2.57228
              P 7  -- In 1                   0.61        2.57228
              P 1  -- In 7                   0.60        2.57508
              P 11 -- In 6                   0.60        2.57508
              P 14 -- In 9                   0.60        2.57513
              P 13 -- In 1                   0.60        2.57513
              P 9  -- In 11                  0.58        2.58793
              P 7  -- In 14                  0.58        2.58793
              P 10 -- In 4                   0.58        2.58819
              P 12 -- In 2                   0.58        2.58819
              P 2  -- In 14                  0.59        2.58865
              P 16 -- In 11                  0.59        2.58865
              P 3  -- In 2                   0.59        2.58911
              P 15 -- In 4                   0.59        2.58911
              P 15 -- In 16                  0.43        2.74346
              P 3  -- In 15                  0.43        2.74346
              P 16 -- In 12                  0.43        2.74414
              P 2  -- In 8                   0.43        2.74414
======================================================================


     Hirshfeld Analysis
     ------------------
Species   Ion     Hirshfeld Charge (e)
======================================
  P        1                -0.24
  P        2                -0.24
  P        3                -0.24
  P        4                -0.24
  P        5                -0.24
  P        6                -0.24
  P        7                -0.24
  P        8                -0.24
  P        9                -0.24
  P       10                -0.24
  P       11                -0.24
  P       12                -0.24
  P       13                -0.24
  P       14                -0.24
  P       15                -0.24
  P       16                -0.24
  In       1                 0.24
  In       2                 0.23
  In       3                 0.24
  In       4                 0.23
  In       5                 0.24
  In       6                 0.24
  In       7                 0.24
  In       8                 0.25
  In       9                 0.24
  In      10                 0.24
  In      11                 0.23
  In      12                 0.25
  In      13                 0.24
  In      14                 0.23
  In      15                 0.25
  In      16                 0.25
======================================

 
 A BibTeX formatted list of references used in this run has been written to 
 StackingFaultStructs_(1_1_0)_(1_-1_0)_6.bib
 
Initialisation time =     20.64 s
Calculation time    =   2722.22 s
Finalisation time   =      1.69 s
Total time          =   2744.55 s
Peak Memory Use     = 2798944 kB
 
Overall parallel efficiency rating: Mediocre (57%)
 
Data was distributed by:-
G-vector (6-way); efficiency rating: Satisfactory (60%)
k-point (40-way); efficiency rating: Excellent (93%)
