 +-------------------------------------------------+
 |                                                 |
 |      CCC   AA    SSS  TTTTT  EEEEE  PPPP        |
 |     C     A  A  S       T    E      P   P       |
 |     C     AAAA   SS     T    EEE    PPPP        |
 |     C     A  A     S    T    E      P           |
 |      CCC  A  A  SSS     T    EEEEE  P           |
 |                                                 |
 +-------------------------------------------------+
 |                                                 |
 | Welcome to Academic Release CASTEP version 22.11|
 | Ab Initio Total Energy Program                  |
 |                                                 |
 | Authors:                                        |
 | M. Segall, M. Probert, C. Pickard, P. Hasnip,   |
 | S. Clark, K. Refson, J. R. Yates, M. Payne      |
 |                                                 |
 | Contributors:                                   |
 | P. Lindan, P. Haynes, J. White, V. Milman,      |
 | N. Govind, M. Gibson, P. Tulip, V. Cocula,      |
 | B. Montanari, D. Quigley, M. Glover,            |
 | L. Bernasconi, A. Perlov, M. Plummer,           |
 | E. McNellis, J. Meyer, J. Gale, D. Jochym       |
 | J. Aarons, B. Walker, R. Gillen, D. Jones       |
 | T. Green, I. J. Bush, C. J. Armstrong,          |
 | E. J. Higgins, E. L. Brown, M. S. McFly,        |
 | J. Wilkins, B-C. Shih, P. J. P. Byrne,          |
 | R. J. Maurer, J. C. Womack, J. Dziedzic,        |
 | A. Bartok-Partay, L. LeBlanc, T. K. Stenczel,   |
 | J. Kermode, S. Sturniolo, B. Shi, B. Durham     |
 | M. Evans, M. J. Smith                           |
 |                                                 |
 | Copyright (c) 2000 - 2021                       |
 |                                                 |
 |     Distributed under license from Cambridge    |
 |     Enterprise for academic use only.           |
 |                                                 |
 | Please cite                                     |
 |                                                 |
 |     "First principles methods using CASTEP"     |
 |                                                 |
 |         Zeitschrift fuer Kristallographie       |
 |           220(5-6) pp. 567-570 (2005)           |
 |                                                 |
 | S. J. Clark, M. D. Segall, C. J. Pickard,       |
 | P. J. Hasnip, M. J. Probert, K. Refson,         |
 | M. C. Payne                                     |
 |                                                 |
 |       in all publications arising from          |
 |              your use of CASTEP                 |
 |                                                 |
 +-------------------------------------------------+
 |                                                 |
 |              http://www.castep.org              |
 |                                                 |
 +-------------------------------------------------+



 Compiled for linux_x86_64_gfortran10-XT on Thu, 16 Mar 2023 13:12:36 +0000
 from code version Version unavailable
 Compiler: GNU Fortran 11.2.0; Optimisation: fast
 MATHLIBS: LibSci (LAPACK version 3.10.1)
 FFT Lib : fftw3 version commercial-fftw-3.3.10-sse2-avx-avx2-avx2_128
 Fundamental constants values: CODATA 2014

 Run started: Mon, 25 Mar 2024 19:19:06 +0000

 Atomic calculation performed for P: 1s2 2s2 2p6 3s2 3p3

 Converged in 47 iterations to an ae energy of -9309.074 eV

   ============================================================                
   | Pseudopotential Report - Date of generation 25-03-2024   |                
   ------------------------------------------------------------                
   | Element: P Ionic charge:  5.00 Level of theory: RSCAN    |                
   | Atomic Solver: Koelling-Harmon                           |                
   |                                                          |                
   |               Reference Electronic Structure             |                
   |         Orbital         Occupation         Energy        |                
   |            3s              2.000           -0.535        |                
   |            3p              3.000           -0.209        |                
   |                                                          |                
   |                 Pseudopotential Definition               |                
   |        Beta     l      e      Rc     scheme   norm       |                
   |          1      0   -0.535   1.807     qc      0         |                
   |          2      0    0.250   1.807     qc      0         |                
   |          3      1   -0.209   1.807     qc      0         |                
   |          4      1    0.250   1.807     qc      0         |                
   |          5      2    0.000   1.807     qc      0         |                
   |          6      2    0.250   1.807     qc      0         |                
   |         loc     3    0.000   1.807     pn      0         |                
   |                                                          |                
   | Augmentation charge Rinner = 1.263                       |                
   | Partial core correction Rc = 1.263                       |                
   ------------------------------------------------------------                
   | "3|1.8|4|4|5|30:31:32"                                   |                
   ------------------------------------------------------------                
   |      Author: Chris J. Pickard, Cambridge University      |                
   ============================================================                
 Warning: otfg_output_psp cannot write out meta-GGA pseudopotentials presently.

 Atomic calculation performed for In:
 1s2 2s2 2p6 3s2 3p6 3d10 4s2 4p6 4d10 5s2 5p1

 Converged in 84 iterations to an ae energy of -160093.327 eV

   ============================================================                
   | Pseudopotential Report - Date of generation 25-03-2024   |                
   ------------------------------------------------------------                
   | Element: In Ionic charge: 13.00 Level of theory: RSCAN   |                
   | Atomic Solver: Koelling-Harmon                           |                
   |                                                          |                
   |               Reference Electronic Structure             |                
   |         Orbital         Occupation         Energy        |                
   |            4d             10.000           -0.711        |                
   |            5s              2.000           -0.313        |                
   |            5p              1.000           -0.095        |                
   |                                                          |                
   |                 Pseudopotential Definition               |                
   |        Beta     l      e      Rc     scheme   norm       |                
   |          1      0   -0.313   2.501     qc      0         |                
   |          2      0    0.250   2.501     qc      0         |                
   |          3      1   -0.095   2.501     qc      0         |                
   |          4      1    0.250   2.501     qc      0         |                
   |          5      2   -0.711   2.207     qc      0         |                
   |          6      2    0.250   2.207     qc      0         |                
   |         loc     3    0.000   2.501     pn      0         |                
   |                                                          |                
   | Augmentation charge Rinner = 1.504                       |                
   | Partial core correction Rc = 1.504                       |                
   ------------------------------------------------------------                
   | "3|2.5|2.5|1.5|7|8|9|50:51:42U2.2U2.2"                   |                
   ------------------------------------------------------------                
   |      Author: Chris J. Pickard, Cambridge University      |                
   ============================================================                
 Warning: otfg_output_psp cannot write out meta-GGA pseudopotentials presently.

 Pseudo atomic calculation performed for P 3s2 3p3

 Converged in 23 iterations to a total energy of -208.0292 eV

 Pseudo atomic calculation performed for In 4d10 5s2 5p1

 Converged in 42 iterations to a total energy of -1747.4500 eV
 Calculation parallelised over 240 processes.
 Data is distributed by G-vector(6-way) and k-point(40-way)
 Each process may use up to 2 threads.

 ************************************ Title ************************************
 

 ***************************** General Parameters ******************************
  
 output verbosity                               : normal  (1)
 write checkpoint data to                       : StackingFaultStructs_(0_0_1)_(1_0_0)_2.check
 type of calculation                            : geometry optimization
 stress calculation                             : off
 density difference calculation                 : off
 electron localisation func (ELF) calculation   : off
 Hirshfeld analysis                             : on
 polarisation (Berry phase) analysis            : off
 molecular orbital projected DOS                : off
 deltaSCF calculation                           : off
 unlimited duration calculation
 timing information                             : on
 memory usage estimate                          : on
 write extra output files                       : on
 write final potential to formatted file        : off
 write final density to formatted file          : off
 write BibTeX reference list                    : on
 write OTFG pseudopotential files               : on
 write electrostatic potential file             : on
 write bands file                               : on
 checkpoint writing                             : off
  
 output         length unit                     : A
 output           mass unit                     : amu
 output           time unit                     : ps
 output         charge unit                     : e
 output           spin unit                     : hbar/2
 output         energy unit                     : eV
 output          force unit                     : eV/A
 output       velocity unit                     : A/ps
 output       pressure unit                     : GPa
 output     inv_length unit                     : 1/A
 output      frequency unit                     : cm-1
 output force constant unit                     : eV/A**2
 output         volume unit                     : A**3
 output   IR intensity unit                     : (D/A)**2/amu
 output         dipole unit                     : D
 output         efield unit                     : eV/A/e
 output        entropy unit                     : J/mol/K
 output    efield chi2 unit                     : pm/V
  
 wavefunctions paging                           : none
 random number generator seed                   : randomised (191906826)
 data distribution                              : optimal for this architecture
 optimization strategy                          : balance speed and memory

 *********************** Exchange-Correlation Parameters ***********************
  
 using functional                               : RSCAN
 relativistic treatment                         : Koelling-Harmon
 DFT+D: Semi-empirical dispersion correction    : off

 ************************* Pseudopotential Parameters **************************
  
 pseudopotential representation                 : reciprocal space
 <beta|phi> representation                      : reciprocal space
 spin-orbit coupling                            : off

 **************************** Basis Set Parameters *****************************
  
 plane wave basis set cut-off                   :   900.0000   eV
 size of standard grid                          :     2.0000
 size of   fine   gmax                          :    30.7390   1/A
 finite basis set correction                    : none

 **************************** Electronic Parameters ****************************
  
 number of  electrons                           :  216.0    
 net charge of system                           :  0.000    
 treating system as non-spin-polarized
 number of bands                                :        130

 ********************* Electronic Minimization Parameters **********************
  
 Method: Treating system as metallic with density mixing treatment of electrons,
         and number of  SD  steps               :          1
         and number of  CG  steps               :          4
  
 total energy / atom convergence tol.           : 0.1000E-07   eV
 eigen-energy convergence tolerance             : 0.2222E-08   eV
 max force / atom convergence tol.              : ignored
 convergence tolerance window                   :          3   cycles
 max. number of SCF cycles                      :         50
 number of fixed-spin iterations                :         10
 smearing scheme                                : Gaussian
 smearing width                                 : 0.2000       eV
 Fermi energy convergence tolerance             : 0.2721E-13   eV
 periodic dipole correction                     : NONE

 ************************** Density Mixing Parameters **************************
  
 density-mixing scheme                          : Pulay
 max. length of mixing history                  :         15
 charge density mixing amplitude                : 0.5000    
 cut-off energy for mixing                      :  900.0       eV

 *********************** Population Analysis Parameters ************************
  
 Population analysis with cutoff                :  3.000       A
 Population analysis output                     : summary and pdos components

 ********************** Geometry Optimization Parameters ***********************
  
 optimization method                            : LBFGS
 max. no. of LBFGS updates                      : unbounded
 preconditioned LBFGS is activated
 preconditioner type                            : EXP
     stabilization constant                     :     0.1000
     parameter A                                :     3.0000
     nearest neighbor distance                  : automatic
     cut-off distance                           : automatic
     parameter mu                               : automatic
 variable cell method                           : fixed basis quality
 max. number of steps                           :         30
 estimated bulk modulus                         :  500.0       GPa
 estimated <frequency>                          :  1668.       cm-1
 geom line minimiser                            : on
 with line minimiser tolerance                  :     0.4000
 total energy convergence tolerance             : 0.2000E-04   eV/atom
        max ionic |force| tolerance             : 0.1000E-02   eV/A
 max ionic |displacement| tolerance             : 0.1000E-02   A
   max |stress component| tolerance             : 0.1000       GPa
 convergence tolerance window                   :          2   steps
 backup results every                           :          5   steps
 write geom trajectory file                     : on

 *******************************************************************************
  

                           -------------------------------
                                      Unit Cell
                           -------------------------------
        Real Lattice(A)                      Reciprocal Lattice(1/A)
     5.9012740     0.0000000     0.0000000        1.064716756   0.000000000   0.000000000
     0.0000000     5.9012740     0.0000000        0.000000000   1.064716756  -0.081901266
     0.0000000     1.3618320    17.7038210        0.000000000   0.000000000   0.354905605

                       Lattice parameters(A)       Cell Angles
                    a =      5.901274          alpha =   85.601296
                    b =      5.901274          beta  =   90.000000
                    c =     17.756122          gamma =   90.000000

                       Current cell volume =           616.536183       A**3
                                   density =             2.837629   AMU/A**3
                                           =             4.711994     g/cm^3

                           -------------------------------
                                     Cell Contents
                           -------------------------------
                         Total number of ions in cell =   24
                      Total number of species in cell =    2
                        Max number of any one species =   12

            xxxxxxxxxxxxxxxxxxxxxxxxxxxxxxxxxxxxxxxxxxxxxxxxxxxxxxxxxxxx
            x  Element    Atom        Fractional coordinates of atoms  x
            x            Number           u          v          w      x
            x----------------------------------------------------------x
            x  P            1         0.250000   0.541340   0.904195   x 
            x  P            2         0.250000   0.078843   0.741682   x 
            x  P            3         0.750000   0.578843   0.741682   x 
            x  P            4         0.750000   0.041340   0.904195   x 
            x  P            5         0.750000   0.190992   0.255701   x 
            x  P            6         0.750000   0.653522   0.418070   x 
            x  P            7         0.750000   0.116117   0.580158   x 
            x  P            8         0.250000   0.690992   0.255701   x 
            x  P            9         0.250000   0.228729   0.092173   x 
            x  P           10         0.750000   0.728729   0.092173   x 
            x  P           11         0.250000   0.153522   0.418070   x 
            x  P           12         0.250000   0.616117   0.580158   x 
            x  In           1         0.000000   0.309832   0.824063   x 
            x  In           2         0.500000   0.347331   0.661566   x 
            x  In           3         0.500000  -0.190168   0.824063   x 
            x  In           4         0.500000  -0.040391   0.175029   x 
            x  In           5         0.500000   0.497464   0.010989   x 
            x  In           6         0.000000  -0.002536   0.010989   x 
            x  In           7         0.000000   0.459609   0.175029   x 
            x  In           8         0.000000  -0.152669   0.661566   x 
            x  In           9         0.500000  -0.115234   0.499346   x 
            x  In          10         0.500000   0.422224   0.337027   x 
            x  In          11         0.000000  -0.077776   0.337027   x 
            x  In          12         0.000000   0.384766   0.499346   x 
            xxxxxxxxxxxxxxxxxxxxxxxxxxxxxxxxxxxxxxxxxxxxxxxxxxxxxxxxxxxx


                         No user defined ionic velocities

                           -------------------------------
                                   Details of Species
                           -------------------------------

                               Mass of species in AMU
                                    P   30.9737600
                                    In  114.8180000

                          Electric Quadrupole Moment (Barn)
                                    P    1.0000000 No Isotope Defined
                                    In    0.7700000 Isotope115

                          Files used for pseudopotentials:
                                    P 3|1.8|4|4|5|30:31:32
                                    In 3|2.5|2.5|1.5|7|8|9|50:51:42U2.2U2.2

                           -------------------------------
                              k-Points For BZ Sampling
                           -------------------------------
                       MP grid size for SCF calculation is  6  6  2
                            with an offset of   0.083  0.083  0.250
                       Number of kpoints used =            40

                           -------------------------------
                               Symmetry and Constraints
                           -------------------------------

                      Cell is a supercell containing 2 primitive cells
                      Maximum deviation from symmetry =  0.00000         ANG

                      Number of symmetry operations   =           1
                      Number of ionic constraints     =          48
                      Point group of crystal =     1: C1, 1, 1
                      Space group of crystal =     1: P1, P 1

             Set iprint > 1 for details on symmetry rotations/translations

                         Centre of mass is NOT constrained
             Set iprint > 1 for details of linear ionic constraints

                         Number of cell constraints= 6
                         Cell constraints are:  0 0 0 0 0 0

                         External pressure/stress (GPa)
                          0.00000   0.00000   0.00000
                                    0.00000   0.00000
                                              0.00000
 
+---------------- MEMORY AND SCRATCH DISK ESTIMATES PER PROCESS --------------+
|                                                     Memory          Disk    |
| Baseline code, static data and system overhead      488.0 MB         0.0 MB |
| BLAS internal memory storage                          0.0 MB         0.0 MB |
| Model and support data                              832.4 MB         0.0 MB |
| Electronic energy minimisation requirements          87.6 MB         0.0 MB |
| Force calculation requirements                       15.9 MB         0.0 MB |
|                                               ----------------------------- |
| Approx. total storage required per process         1408.1 MB         0.0 MB |
|                                                                             |
| Requirements will fluctuate during execution and may exceed these estimates |
+-----------------------------------------------------------------------------+
Calculating approximate eigenstates for fixed initial Hamiltonian
Cut-off for approx. calculation is  131.752 eV
Improving approx. states at cut-off of  450.000 eV
Resetting cut-off to  900.000 eV
Calculating total energy with cut-off of  900.000 eV.
------------------------------------------------------------------------ <-- SCF
SCF loop      Energy           Fermi           Energy gain       Timer   <-- SCF
                               energy          per atom          (sec)   <-- SCF
------------------------------------------------------------------------ <-- SCF
Initial  -2.36316286E+004  0.00000000E+000                        40.40  <-- SCF
      1  -2.35492961E+004  2.75990330E+000  -3.43051939E+000      50.82  <-- SCF
      2  -2.35493105E+004  2.75984733E+000   5.99169294E-004      60.36  <-- SCF
      3  -2.35738385E+004  3.21302140E+000   1.02199955E+000      70.70  <-- SCF
      4  -2.35779337E+004  3.29268458E+000   1.70633793E-001      83.17  <-- SCF
      5  -2.35758645E+004  3.60507742E+000  -8.62172960E-002      93.32  <-- SCF
      6  -2.35762089E+004  3.65875981E+000   1.43498060E-002     103.78  <-- SCF
      7  -2.35760036E+004  3.73195866E+000  -8.55367858E-003     114.69  <-- SCF
      8  -2.35766161E+004  3.75995797E+000   2.55226765E-002     125.10  <-- SCF
      9  -2.35766412E+004  3.73230952E+000   1.04441550E-003     135.26  <-- SCF
     10  -2.35766547E+004  3.72003801E+000   5.62635250E-004     146.20  <-- SCF
     11  -2.35766626E+004  3.72888842E+000   3.29844581E-004     156.95  <-- SCF
     12  -2.35766668E+004  3.71974093E+000   1.76106601E-004     167.42  <-- SCF
     13  -2.35766671E+004  3.72822620E+000   1.10890691E-005     178.22  <-- SCF
     14  -2.35766671E+004  3.72795144E+000   1.27246790E-007     187.90  <-- SCF
     15  -2.35766671E+004  3.72732515E+000  -1.54572222E-007     197.15  <-- SCF
     16  -2.35766671E+004  3.72733264E+000   1.66194660E-007     205.32  <-- SCF
     17  -2.35766671E+004  3.72737980E+000  -5.04510756E-009     213.01  <-- SCF
     18  -2.35766671E+004  3.72738313E+000   6.46905501E-009     220.53  <-- SCF
------------------------------------------------------------------------ <-- SCF
 
Final energy, E             =  -23576.66054859     eV
Final free energy (E-TS)    =  -23576.66708807     eV
(energies not corrected for finite basis set)
 
NB est. 0K energy (E-0.5TS)      =  -23576.66381833     eV
 
 
+---------------- MEMORY AND SCRATCH DISK ESTIMATES PER PROCESS --------------+
|                                                     Memory          Disk    |
| Model and support data                              554.7 MB         0.0 MB |
| Electronic energy minimisation requirements          87.6 MB         0.0 MB |
| Geometry minimisation requirements                  102.2 MB         0.0 MB |
|                                               ----------------------------- |
| Approx. total storage required per process          744.5 MB         0.0 MB |
|                                                                             |
| Requirements will fluctuate during execution and may exceed these estimates |
+-----------------------------------------------------------------------------+
 

 ******************************** Constrained Forces ********************************
 *                                                                                  *
 *                           Cartesian components (eV/A)                            *
 * -------------------------------------------------------------------------------- *
 *                         x                    y                    z              *
 *                                                                                  *
 * P               1      0.00000(cons'd)      0.00000(cons'd)      0.13106         *
 * P               2      0.00000(cons'd)      0.00000(cons'd)      0.03643         *
 * P               3      0.00000(cons'd)      0.00000(cons'd)      0.03643         *
 * P               4      0.00000(cons'd)      0.00000(cons'd)      0.13106         *
 * P               5      0.00000(cons'd)      0.00000(cons'd)     -0.09568         *
 * P               6      0.00000(cons'd)     -0.00000(cons'd)     -0.12073         *
 * P               7      0.00000(cons'd)      0.00000(cons'd)     -0.09350         *
 * P               8      0.00000(cons'd)     -0.00000(cons'd)     -0.09568         *
 * P               9      0.00000(cons'd)     -0.00000(cons'd)      0.12266         *
 * P              10      0.00000(cons'd)      0.00000(cons'd)      0.12266         *
 * P              11      0.00000(cons'd)     -0.00000(cons'd)     -0.12073         *
 * P              12      0.00000(cons'd)      0.00000(cons'd)     -0.09350         *
 * In              1      0.00000(cons'd)      0.00000(cons'd)     -0.01349         *
 * In              2      0.00000(cons'd)      0.00000(cons'd)      0.01930         *
 * In              3      0.00000(cons'd)      0.00000(cons'd)     -0.01349         *
 * In              4      0.00000(cons'd)      0.00000(cons'd)      0.03102         *
 * In              5     -0.00000(cons'd)      0.00000(cons'd)     -0.23885         *
 * In              6      0.00000(cons'd)      0.00000(cons'd)     -0.23885         *
 * In              7      0.00000(cons'd)      0.00000(cons'd)      0.03102         *
 * In              8      0.00000(cons'd)      0.00000(cons'd)      0.01930         *
 * In              9      0.00000(cons'd)      0.00000(cons'd)      0.10047         *
 * In             10      0.00000(cons'd)      0.00000(cons'd)      0.12132         *
 * In             11      0.00000(cons'd)      0.00000(cons'd)      0.12132         *
 * In             12      0.00000(cons'd)      0.00000(cons'd)      0.10047         *
 *                                                                                  *
 ************************************************************************************
 EXP precond LBFGS => estimated nearest neighbor distance :  2.534       A
 EXP precond LBFGS => estimated cutoff distance :  5.067       A

 ************************************** Forces **************************************
 *                                                                                  *
 *                           Cartesian components (eV/A)                            *
 * -------------------------------------------------------------------------------- *
 *                         x                    y                    z              *
 *                                                                                  *
 * P               1      0.00625(cons'd)      1.27723(cons'd)      0.13106         *
 * P               2      0.21992(cons'd)      0.13984(cons'd)      0.03643         *
 * P               3      0.21992(cons'd)      0.13984(cons'd)      0.03643         *
 * P               4      0.00625(cons'd)      1.27724(cons'd)      0.13106         *
 * P               5      0.00572(cons'd)     -0.06405(cons'd)     -0.09568         *
 * P               6      0.00724(cons'd)     -0.00302(cons'd)     -0.12073         *
 * P               7      0.03228(cons'd)      0.01799(cons'd)     -0.09350         *
 * P               8      0.00572(cons'd)     -0.06405(cons'd)     -0.09568         *
 * P               9      0.00535(cons'd)     -0.47687(cons'd)      0.12266         *
 * P              10      0.00535(cons'd)     -0.47687(cons'd)      0.12266         *
 * P              11      0.00724(cons'd)     -0.00302(cons'd)     -0.12073         *
 * P              12      0.03228(cons'd)      0.01799(cons'd)     -0.09350         *
 * In              1     -0.24636(cons'd)     -0.34981(cons'd)     -0.01349         *
 * In              2     -0.03180(cons'd)     -0.05360(cons'd)      0.01930         *
 * In              3     -0.24636(cons'd)     -0.34981(cons'd)     -0.01349         *
 * In              4     -0.15115(cons'd)     -0.02590(cons'd)      0.03102         *
 * In              5      0.18693(cons'd)     -0.44887(cons'd)     -0.23885         *
 * In              6      0.18693(cons'd)     -0.44887(cons'd)     -0.23885         *
 * In              7     -0.15115(cons'd)     -0.02590(cons'd)      0.03102         *
 * In              8     -0.03180(cons'd)     -0.05360(cons'd)      0.01930         *
 * In              9     -0.00936(cons'd)     -0.00818(cons'd)      0.10047         *
 * In             10     -0.02501(cons'd)     -0.00478(cons'd)      0.12132         *
 * In             11     -0.02501(cons'd)     -0.00478(cons'd)      0.12132         *
 * In             12     -0.00936(cons'd)     -0.00818(cons'd)      0.10047         *
 *                                                                                  *
 ************************************************************************************
 doing test perturbation to get energy scale for EXP preconditioner

                           -------------------------------
                                     Cell Contents
                           -------------------------------

            xxxxxxxxxxxxxxxxxxxxxxxxxxxxxxxxxxxxxxxxxxxxxxxxxxxxxxxxxxxxxxxxx
            x  Element         Atom        Fractional coordinates of atoms  x
            x                 Number           u          v          w      x
            x---------------------------------------------------------------x
            x  P                 1         0.251405   0.544672   0.905409   x
            x  P                 2         0.251405   0.080004   0.742738   x
            x  P                 3         0.753613   0.582211   0.742738   x
            x  P                 4         0.753613   0.042464   0.905409   x
            x  P                 5         0.753613   0.192303   0.256105   x
            x  P                 6         0.753613   0.656986   0.418716   x
            x  P                 7         0.753613   0.117322   0.581024   x
            x  P                 8         0.251405   0.694511   0.256105   x
            x  P                 9         0.251405   0.230100   0.092320   x
            x  P                10         0.753613   0.732308   0.092320   x
            x  P                11         0.251405   0.154778   0.418716   x
            x  P                12         0.251405   0.619530   0.581024   x
            x  In                1         0.000000   0.312223   0.825204   x
            x  In                2         0.502655   0.349763   0.662532   x
            x  In                3         0.502655   0.813741   0.825204   x
            x  In                4         0.502655   0.963717   0.175308   x
            x  In                5         0.502655   0.500115   0.011006   x
            x  In                6         0.000000   1.001633   0.011006   x
            x  In                7         0.000000   0.462199   0.175308   x
            x  In                8         0.000000   0.851281   0.662532   x
            x  In                9         0.502655   0.888764   0.500105   x
            x  In               10         0.502655   0.424758   0.337555   x
            x  In               11         0.000000   0.926276   0.337555   x
            x  In               12         0.000000   0.387246   0.500105   x
            xxxxxxxxxxxxxxxxxxxxxxxxxxxxxxxxxxxxxxxxxxxxxxxxxxxxxxxxxxxxxxxxx


------------------------------------------------------------------------ <-- SCF
SCF loop      Energy           Fermi           Energy gain       Timer   <-- SCF
                               energy          per atom          (sec)   <-- SCF
------------------------------------------------------------------------ <-- SCF
Initial  -2.35753794E+004  0.00000000E+000                       234.72  <-- SCF
      1  -2.35764914E+004  3.71338898E+000   4.63330578E-002     244.71  <-- SCF
      2  -2.35766450E+004  3.71328783E+000   6.40013889E-003     257.40  <-- SCF
      3  -2.35766459E+004  3.71157102E+000   3.55671024E-005     268.09  <-- SCF
      4  -2.35766468E+004  3.71208168E+000   3.94377120E-005     278.97  <-- SCF
      5  -2.35766470E+004  3.71248703E+000   5.70833051E-006     290.78  <-- SCF
      6  -2.35766470E+004  3.71249387E+000   9.53085009E-007     301.68  <-- SCF
      7  -2.35766470E+004  3.71243439E+000   2.89865533E-008     311.37  <-- SCF
      8  -2.35766470E+004  3.71242651E+000  -5.06241869E-008     320.50  <-- SCF
      9  -2.35766470E+004  3.71241983E+000  -8.26745410E-009     328.57  <-- SCF
     10  -2.35766470E+004  3.71241394E+000  -3.20906995E-009     336.67  <-- SCF
     11  -2.35766470E+004  3.71241056E+000   4.59009402E-010     344.19  <-- SCF
------------------------------------------------------------------------ <-- SCF
 
Final energy, E             =  -23576.64114053     eV
Final free energy (E-TS)    =  -23576.64697657     eV
(energies not corrected for finite basis set)
 
NB est. 0K energy (E-0.5TS)      =  -23576.64405855     eV
 

 ************************************** Forces **************************************
 *                                                                                  *
 *                           Cartesian components (eV/A)                            *
 * -------------------------------------------------------------------------------- *
 *                         x                    y                    z              *
 *                                                                                  *
 * P               1     -0.05654(cons'd)      1.27001(cons'd)     -0.02054         *
 * P               2      0.24685(cons'd)      0.26656(cons'd)      0.03173         *
 * P               3      0.08429(cons'd)      0.10468(cons'd)      0.04043         *
 * P               4     -0.19185(cons'd)      1.29512(cons'd)     -0.10749         *
 * P               5     -0.13546(cons'd)      0.06253(cons'd)     -0.09164         *
 * P               6     -0.13006(cons'd)     -0.04329(cons'd)     -0.11684         *
 * P               7     -0.10768(cons'd)      0.15062(cons'd)     -0.09892         *
 * P               8      0.03222(cons'd)     -0.11094(cons'd)     -0.08906         *
 * P               9      0.02530(cons'd)     -0.37181(cons'd)      0.12500         *
 * P              10     -0.11672(cons'd)     -0.53093(cons'd)      0.14634         *
 * P              11      0.03300(cons'd)      0.12334(cons'd)     -0.11753         *
 * P              12      0.05770(cons'd)     -0.01522(cons'd)     -0.09401         *
 * In              1     -0.09785(cons'd)     -0.32545(cons'd)     -0.04121         *
 * In              2     -0.08845(cons'd)     -0.03695(cons'd)      0.01830         *
 * In              3     -0.30587(cons'd)     -0.44137(cons'd)     -0.03150         *
 * In              4     -0.20792(cons'd)     -0.13244(cons'd)      0.02896         *
 * In              5      0.23039(cons'd)     -0.45523(cons'd)     -0.06936         *
 * In              6      0.42940(cons'd)     -0.44720(cons'd)      0.01431         *
 * In              7      0.00336(cons'd)      0.00062(cons'd)      0.02762         *
 * In              8      0.13818(cons'd)     -0.15855(cons'd)      0.01576         *
 * In              9     -0.06488(cons'd)     -0.11634(cons'd)      0.09605         *
 * In             10     -0.07896(cons'd)      0.01386(cons'd)      0.11741         *
 * In             11      0.14362(cons'd)     -0.11363(cons'd)      0.11985         *
 * In             12      0.15792(cons'd)      0.01203(cons'd)      0.09635         *
 *                                                                                  *
 ************************************************************************************
 EXP precond LBFGS => estimated parameter mu :  2.307       eV/A**2
 LBFGS: finished iteration     0 with enthalpy= -2.35766671E+004 eV
  
 +-----------+-----------------+-----------------+------------+-----+ <-- LBFGS
 | Parameter |      value      |    tolerance    |    units   | OK? | <-- LBFGS
 +-----------+-----------------+-----------------+------------+-----+ <-- LBFGS
 |  dE/ion   |   0.000000E+000 |   2.000000E-005 |         eV | No  | <-- LBFGS
 |  |F|max   |   1.313661E+000 |   1.000000E-003 |       eV/A | No  | <-- LBFGS
 |  |dR|max  |   9.400076E-016 |   1.000000E-003 |          A | No  | <-- LBFGS
 +-----------+-----------------+-----------------+------------+-----+ <-- LBFGS
  

================================================================================
 Starting LBFGS iteration          1 ...
================================================================================
  
 +------------+-------------+-------------+-----------------+ <-- min LBFGS
 |    Step    |   lambda    |   F.delta'  |    enthalpy     | <-- min LBFGS
 +------------+-------------+-------------+-----------------+ <-- min LBFGS
 |  previous  |    0.000000 |    0.325797 |   -23576.667088 | <-- min LBFGS
 +------------+-------------+-------------+-----------------+ <-- min LBFGS
  

--------------------------------------------------------------------------------
 LBFGS: starting iteration         1 with trial guess (lambda=  1.000000)
--------------------------------------------------------------------------------

                           -------------------------------
                                     Cell Contents
                           -------------------------------

            xxxxxxxxxxxxxxxxxxxxxxxxxxxxxxxxxxxxxxxxxxxxxxxxxxxxxxxxxxxxxxxxx
            x  Element         Atom        Fractional coordinates of atoms  x
            x                 Number           u          v          w      x
            x---------------------------------------------------------------x
            x  P                 1         0.250000   0.541213   0.904744   x
            x  P                 2         0.250000   0.078762   0.742029   x
            x  P                 3         0.750000   0.578762   0.742029   x
            x  P                 4         0.750000   0.041213   0.904744   x
            x  P                 5         0.750000   0.191075   0.255341   x
            x  P                 6         0.750000   0.653617   0.417661   x
            x  P                 7         0.750000   0.116184   0.579868   x
            x  P                 8         0.250000   0.691075   0.255341   x
            x  P                 9         0.250000   0.228675   0.092407   x
            x  P                10         0.750000   0.728675   0.092407   x
            x  P                11         0.250000   0.153617   0.417661   x
            x  P                12         0.250000   0.616184   0.579868   x
            x  In                1         0.000000   0.309779   0.824292   x
            x  In                2         0.500000   0.347296   0.661718   x
            x  In                3         0.500000  -0.190221   0.824292   x
            x  In                4         0.500000  -0.040403   0.175080   x
            x  In                5         0.500000   0.497705   0.009944   x
            x  In                6         0.000000  -0.002295   0.009944   x
            x  In                7         0.000000   0.459597   0.175080   x
            x  In                8         0.000000  -0.152704   0.661718   x
            x  In                9         0.500000  -0.115289   0.499586   x
            x  In               10         0.500000   0.422155   0.337330   x
            x  In               11         0.000000  -0.077845   0.337330   x
            x  In               12         0.000000   0.384711   0.499586   x
            xxxxxxxxxxxxxxxxxxxxxxxxxxxxxxxxxxxxxxxxxxxxxxxxxxxxxxxxxxxxxxxxx


------------------------------------------------------------------------ <-- SCF
SCF loop      Energy           Fermi           Energy gain       Timer   <-- SCF
                               energy          per atom          (sec)   <-- SCF
------------------------------------------------------------------------ <-- SCF
Initial  -2.35751511E+004  0.00000000E+000                       352.94  <-- SCF
      1  -2.35765210E+004  3.71031453E+000   5.70782273E-002     362.94  <-- SCF
      2  -2.35766717E+004  3.71023686E+000   6.27850056E-003     375.60  <-- SCF
      3  -2.35766728E+004  3.70947069E+000   4.61330183E-005     386.36  <-- SCF
      4  -2.35766736E+004  3.70724792E+000   3.38277470E-005     397.31  <-- SCF
      5  -2.35766736E+004  3.70645976E+000   2.63989971E-006     409.68  <-- SCF
      6  -2.35766736E+004  3.70593017E+000  -9.32871967E-007     420.65  <-- SCF
      7  -2.35766736E+004  3.70567233E+000  -9.24100132E-007     431.06  <-- SCF
      8  -2.35766736E+004  3.70544273E+000  -3.43591804E-007     440.90  <-- SCF
      9  -2.35766736E+004  3.70542526E+000   5.69630539E-009     449.39  <-- SCF
     10  -2.35766736E+004  3.70543333E+000   3.65918532E-009     457.23  <-- SCF
     11  -2.35766736E+004  3.70544012E+000   8.07036750E-010     464.70  <-- SCF
------------------------------------------------------------------------ <-- SCF
 
Final energy, E             =  -23576.66824608     eV
Final free energy (E-TS)    =  -23576.67359686     eV
(energies not corrected for finite basis set)
 
NB est. 0K energy (E-0.5TS)      =  -23576.67092147     eV
 

 ******************************** Constrained Forces ********************************
 *                                                                                  *
 *                           Cartesian components (eV/A)                            *
 * -------------------------------------------------------------------------------- *
 *                         x                    y                    z              *
 *                                                                                  *
 * P               1      0.00000(cons'd)      0.00000(cons'd)     -0.09711         *
 * P               2      0.00000(cons'd)      0.00000(cons'd)      0.00203         *
 * P               3      0.00000(cons'd)      0.00000(cons'd)      0.00203         *
 * P               4     -0.00000(cons'd)      0.00000(cons'd)     -0.09711         *
 * P               5      0.00000(cons'd)      0.00000(cons'd)      0.00798         *
 * P               6      0.00000(cons'd)      0.00000(cons'd)      0.00755         *
 * P               7      0.00000(cons'd)      0.00000(cons'd)      0.00325         *
 * P               8      0.00000(cons'd)      0.00000(cons'd)      0.00798         *
 * P               9      0.00000(cons'd)      0.00000(cons'd)     -0.00957         *
 * P              10      0.00000(cons'd)     -0.00000(cons'd)     -0.00957         *
 * P              11      0.00000(cons'd)      0.00000(cons'd)      0.00755         *
 * P              12      0.00000(cons'd)      0.00000(cons'd)      0.00325         *
 * In              1      0.00000(cons'd)      0.00000(cons'd)      0.00575         *
 * In              2      0.00000(cons'd)      0.00000(cons'd)      0.00115         *
 * In              3      0.00000(cons'd)      0.00000(cons'd)      0.00575         *
 * In              4      0.00000(cons'd)      0.00000(cons'd)     -0.00290         *
 * In              5      0.00000(cons'd)      0.00000(cons'd)      0.10302         *
 * In              6      0.00000(cons'd)      0.00000(cons'd)      0.10308         *
 * In              7      0.00000(cons'd)      0.00000(cons'd)     -0.00290         *
 * In              8      0.00000(cons'd)      0.00000(cons'd)      0.00114         *
 * In              9      0.00000(cons'd)      0.00000(cons'd)     -0.00963         *
 * In             10      0.00000(cons'd)      0.00000(cons'd)     -0.01154         *
 * In             11      0.00000(cons'd)      0.00000(cons'd)     -0.01154         *
 * In             12      0.00000(cons'd)      0.00000(cons'd)     -0.00964         *
 *                                                                                  *
 ************************************************************************************
  
 +------------+-------------+-------------+-----------------+ <-- min LBFGS
 |    Step    |   lambda    |   F.delta'  |    enthalpy     | <-- min LBFGS
 +------------+-------------+-------------+-----------------+ <-- min LBFGS
 |  previous  |    0.000000 |    0.325797 |   -23576.667088 | <-- min LBFGS
 | trial step |    1.000000 |   -0.105641 |   -23576.673597 | <-- min LBFGS
 +------------+-------------+-------------+-----------------+ <-- min LBFGS
  
 LBFGS: finished iteration     1 with enthalpy= -2.35766736E+004 eV
  
 +-----------+-----------------+-----------------+------------+-----+ <-- LBFGS
 | Parameter |      value      |    tolerance    |    units   | OK? | <-- LBFGS
 +-----------+-----------------+-----------------+------------+-----+ <-- LBFGS
 |  dE/ion   |   2.711996E-004 |   2.000000E-005 |         eV | No  | <-- LBFGS
 |  |F|max   |   1.030765E-001 |   1.000000E-003 |       eV/A | No  | <-- LBFGS
 |  |dR|max  |   1.848676E-002 |   1.000000E-003 |          A | No  | <-- LBFGS
 +-----------+-----------------+-----------------+------------+-----+ <-- LBFGS
  

================================================================================
 Starting LBFGS iteration          2 ...
================================================================================
  
 +------------+-------------+-------------+-----------------+ <-- min LBFGS
 |    Step    |   lambda    |   F.delta'  |    enthalpy     | <-- min LBFGS
 +------------+-------------+-------------+-----------------+ <-- min LBFGS
 |  previous  |    0.000000 |    0.105910 |   -23576.673597 | <-- min LBFGS
 +------------+-------------+-------------+-----------------+ <-- min LBFGS
  

--------------------------------------------------------------------------------
 LBFGS: starting iteration         2 with trial guess (lambda=  1.000000)
--------------------------------------------------------------------------------

                           -------------------------------
                                     Cell Contents
                           -------------------------------

            xxxxxxxxxxxxxxxxxxxxxxxxxxxxxxxxxxxxxxxxxxxxxxxxxxxxxxxxxxxxxxxxx
            x  Element         Atom        Fractional coordinates of atoms  x
            x                 Number           u          v          w      x
            x---------------------------------------------------------------x
            x  P                 1         0.250000   0.541286   0.904425   x
            x  P                 2         0.250000   0.078782   0.741944   x
            x  P                 3         0.750000   0.578782   0.741944   x
            x  P                 4         0.750000   0.041286   0.904425   x
            x  P                 5         0.750000   0.191057   0.255420   x
            x  P                 6         0.750000   0.653618   0.417657   x
            x  P                 7         0.750000   0.116198   0.579807   x
            x  P                 8         0.250000   0.691057   0.255420   x
            x  P                 9         0.250000   0.228639   0.092564   x
            x  P                10         0.750000   0.728639   0.092564   x
            x  P                11         0.250000   0.153618   0.417657   x
            x  P                12         0.250000   0.616198   0.579807   x
            x  In                1         0.000000   0.309808   0.824166   x
            x  In                2         0.500000   0.347312   0.661648   x
            x  In                3         0.500000  -0.190192   0.824166   x
            x  In                4         0.500000  -0.040428   0.175189   x
            x  In                5         0.500000   0.497625   0.010293   x
            x  In                6         0.000000  -0.002375   0.010293   x
            x  In                7         0.000000   0.459572   0.175189   x
            x  In                8         0.000000  -0.152688   0.661648   x
            x  In                9         0.500000  -0.115278   0.499540   x
            x  In               10         0.500000   0.422151   0.337347   x
            x  In               11         0.000000  -0.077849   0.337347   x
            x  In               12         0.000000   0.384722   0.499540   x
            xxxxxxxxxxxxxxxxxxxxxxxxxxxxxxxxxxxxxxxxxxxxxxxxxxxxxxxxxxxxxxxxx


------------------------------------------------------------------------ <-- SCF
SCF loop      Energy           Fermi           Energy gain       Timer   <-- SCF
                               energy          per atom          (sec)   <-- SCF
------------------------------------------------------------------------ <-- SCF
Initial  -2.35766659E+004  0.00000000E+000                       473.42  <-- SCF
      1  -2.35766729E+004  3.71231508E+000   2.93726386E-004     483.54  <-- SCF
      2  -2.35766747E+004  3.71231264E+000   7.44914721E-005     496.16  <-- SCF
      3  -2.35766747E+004  3.71312895E+000  -1.25638826E-006     506.97  <-- SCF
      4  -2.35766747E+004  3.71347037E+000  -5.13578286E-007     517.36  <-- SCF
      5  -2.35766747E+004  3.71357481E+000  -2.16457156E-007     527.04  <-- SCF
      6  -2.35766747E+004  3.71372561E+000  -1.30498655E-007     535.82  <-- SCF
      7  -2.35766747E+004  3.71386752E+000  -6.60304554E-008     544.67  <-- SCF
      8  -2.35766747E+004  3.71388920E+000  -2.89868111E-009     552.86  <-- SCF
      9  -2.35766747E+004  3.71388052E+000   4.57204816E-010     560.38  <-- SCF
------------------------------------------------------------------------ <-- SCF
 
Final energy, E             =  -23576.66896177     eV
Final free energy (E-TS)    =  -23576.67466723     eV
(energies not corrected for finite basis set)
 
NB est. 0K energy (E-0.5TS)      =  -23576.67181450     eV
 

 ******************************** Constrained Forces ********************************
 *                                                                                  *
 *                           Cartesian components (eV/A)                            *
 * -------------------------------------------------------------------------------- *
 *                         x                    y                    z              *
 *                                                                                  *
 * P               1     -0.00000(cons'd)      0.00000(cons'd)      0.00629         *
 * P               2      0.00000(cons'd)      0.00000(cons'd)     -0.00485         *
 * P               3      0.00000(cons'd)      0.00000(cons'd)     -0.00485         *
 * P               4     -0.00000(cons'd)      0.00000(cons'd)      0.00630         *
 * P               5      0.00000(cons'd)     -0.00000(cons'd)      0.00211         *
 * P               6      0.00000(cons'd)      0.00000(cons'd)      0.00295         *
 * P               7      0.00000(cons'd)      0.00000(cons'd)      0.00127         *
 * P               8      0.00000(cons'd)      0.00000(cons'd)      0.00210         *
 * P               9      0.00000(cons'd)      0.00000(cons'd)     -0.00468         *
 * P              10      0.00000(cons'd)      0.00000(cons'd)     -0.00468         *
 * P              11      0.00000(cons'd)      0.00000(cons'd)      0.00295         *
 * P              12      0.00000(cons'd)      0.00000(cons'd)      0.00127         *
 * In              1      0.00000(cons'd)      0.00000(cons'd)      0.00368         *
 * In              2      0.00000(cons'd)      0.00000(cons'd)      0.00280         *
 * In              3      0.00000(cons'd)      0.00000(cons'd)      0.00368         *
 * In              4      0.00000(cons'd)      0.00000(cons'd)      0.00296         *
 * In              5      0.00000(cons'd)      0.00000(cons'd)     -0.00434         *
 * In              6      0.00000(cons'd)      0.00000(cons'd)     -0.00437         *
 * In              7      0.00000(cons'd)      0.00000(cons'd)      0.00296         *
 * In              8      0.00000(cons'd)      0.00000(cons'd)      0.00280         *
 * In              9      0.00000(cons'd)      0.00000(cons'd)     -0.00376         *
 * In             10      0.00000(cons'd)      0.00000(cons'd)     -0.00440         *
 * In             11      0.00000(cons'd)      0.00000(cons'd)     -0.00440         *
 * In             12      0.00000(cons'd)      0.00000(cons'd)     -0.00376         *
 *                                                                                  *
 ************************************************************************************
  
 +------------+-------------+-------------+-----------------+ <-- min LBFGS
 |    Step    |   lambda    |   F.delta'  |    enthalpy     | <-- min LBFGS
 +------------+-------------+-------------+-----------------+ <-- min LBFGS
 |  previous  |    0.000000 |    0.105910 |   -23576.673597 | <-- min LBFGS
 | trial step |    1.000000 |   -0.006548 |   -23576.674667 | <-- min LBFGS
 +------------+-------------+-------------+-----------------+ <-- min LBFGS
  
 LBFGS: finished iteration     2 with enthalpy= -2.35766747E+004 eV
  
 +-----------+-----------------+-----------------+------------+-----+ <-- LBFGS
 | Parameter |      value      |    tolerance    |    units   | OK? | <-- LBFGS
 +-----------+-----------------+-----------------+------------+-----+ <-- LBFGS
 |  dE/ion   |   4.459883E-005 |   2.000000E-005 |         eV | No  | <-- LBFGS
 |  |F|max   |   6.304161E-003 |   1.000000E-003 |       eV/A | No  | <-- LBFGS
 |  |dR|max  |   6.176505E-003 |   1.000000E-003 |          A | No  | <-- LBFGS
 +-----------+-----------------+-----------------+------------+-----+ <-- LBFGS
  

================================================================================
 Starting LBFGS iteration          3 ...
================================================================================
  
 +------------+-------------+-------------+-----------------+ <-- min LBFGS
 |    Step    |   lambda    |   F.delta'  |    enthalpy     | <-- min LBFGS
 +------------+-------------+-------------+-----------------+ <-- min LBFGS
 |  previous  |    0.000000 |    0.010336 |   -23576.674667 | <-- min LBFGS
 +------------+-------------+-------------+-----------------+ <-- min LBFGS
  

--------------------------------------------------------------------------------
 LBFGS: starting iteration         3 with trial guess (lambda=  1.000000)
--------------------------------------------------------------------------------

                           -------------------------------
                                     Cell Contents
                           -------------------------------

            xxxxxxxxxxxxxxxxxxxxxxxxxxxxxxxxxxxxxxxxxxxxxxxxxxxxxxxxxxxxxxxxx
            x  Element         Atom        Fractional coordinates of atoms  x
            x                 Number           u          v          w      x
            x---------------------------------------------------------------x
            x  P                 1         0.250000   0.541279   0.904458   x
            x  P                 2         0.250000   0.078783   0.741940   x
            x  P                 3         0.750000   0.578783   0.741940   x
            x  P                 4         0.750000   0.041279   0.904458   x
            x  P                 5         0.750000   0.191057   0.255420   x
            x  P                 6         0.750000   0.653618   0.417657   x
            x  P                 7         0.750000   0.116197   0.579815   x
            x  P                 8         0.250000   0.691057   0.255420   x
            x  P                 9         0.250000   0.228646   0.092536   x
            x  P                10         0.750000   0.728646   0.092536   x
            x  P                11         0.250000   0.153618   0.417657   x
            x  P                12         0.250000   0.616197   0.579815   x
            x  In                1         0.000000   0.309801   0.824196   x
            x  In                2         0.500000   0.347308   0.661663   x
            x  In                3         0.500000  -0.190199   0.824196   x
            x  In                4         0.500000  -0.040428   0.175189   x
            x  In                5         0.500000   0.497627   0.010283   x
            x  In                6         0.000000  -0.002373   0.010283   x
            x  In                7         0.000000   0.459572   0.175189   x
            x  In                8         0.000000  -0.152692   0.661663   x
            x  In                9         0.500000  -0.115274   0.499522   x
            x  In               10         0.500000   0.422157   0.337322   x
            x  In               11         0.000000  -0.077843   0.337322   x
            x  In               12         0.000000   0.384726   0.499522   x
            xxxxxxxxxxxxxxxxxxxxxxxxxxxxxxxxxxxxxxxxxxxxxxxxxxxxxxxxxxxxxxxxx


------------------------------------------------------------------------ <-- SCF
SCF loop      Energy           Fermi           Energy gain       Timer   <-- SCF
                               energy          per atom          (sec)   <-- SCF
------------------------------------------------------------------------ <-- SCF
Initial  -2.35766681E+004  0.00000000E+000                       569.10  <-- SCF
      1  -2.35766747E+004  3.71330406E+000   2.72196983E-004     579.14  <-- SCF
      2  -2.35766747E+004  3.71330404E+000   1.03724782E-006     591.84  <-- SCF
      3  -2.35766747E+004  3.71324903E+000  -1.21395806E-008     600.28  <-- SCF
      4  -2.35766747E+004  3.71322127E+000  -4.29285289E-009     608.56  <-- SCF
      5  -2.35766747E+004  3.71320405E+000  -9.42122921E-010     615.99  <-- SCF
------------------------------------------------------------------------ <-- SCF
 
Final energy, E             =  -23576.66899460     eV
Final free energy (E-TS)    =  -23576.67467927     eV
(energies not corrected for finite basis set)
 
NB est. 0K energy (E-0.5TS)      =  -23576.67183694     eV
 

 ******************************** Constrained Forces ********************************
 *                                                                                  *
 *                           Cartesian components (eV/A)                            *
 * -------------------------------------------------------------------------------- *
 *                         x                    y                    z              *
 *                                                                                  *
 * P               1      0.00000(cons'd)      0.00000(cons'd)     -0.00001         *
 * P               2      0.00000(cons'd)      0.00000(cons'd)      0.00030         *
 * P               3      0.00000(cons'd)      0.00000(cons'd)      0.00030         *
 * P               4     -0.00000(cons'd)      0.00000(cons'd)     -0.00002         *
 * P               5      0.00000(cons'd)     -0.00000(cons'd)     -0.00030         *
 * P               6      0.00000(cons'd)      0.00000(cons'd)     -0.00097         *
 * P               7      0.00000(cons'd)      0.00000(cons'd)     -0.00049         *
 * P               8      0.00000(cons'd)     -0.00000(cons'd)     -0.00030         *
 * P               9      0.00000(cons'd)      0.00000(cons'd)      0.00026         *
 * P              10      0.00000(cons'd)      0.00000(cons'd)      0.00026         *
 * P              11      0.00000(cons'd)     -0.00000(cons'd)     -0.00097         *
 * P              12      0.00000(cons'd)      0.00000(cons'd)     -0.00049         *
 * In              1      0.00000(cons'd)      0.00000(cons'd)     -0.00064         *
 * In              2      0.00000(cons'd)      0.00000(cons'd)     -0.00073         *
 * In              3      0.00000(cons'd)      0.00000(cons'd)     -0.00065         *
 * In              4      0.00000(cons'd)      0.00000(cons'd)     -0.00019         *
 * In              5      0.00000(cons'd)      0.00000(cons'd)      0.00014         *
 * In              6      0.00000(cons'd)      0.00000(cons'd)      0.00015         *
 * In              7      0.00000(cons'd)      0.00000(cons'd)     -0.00019         *
 * In              8      0.00000(cons'd)      0.00000(cons'd)     -0.00073         *
 * In              9      0.00000(cons'd)      0.00000(cons'd)      0.00117         *
 * In             10      0.00000(cons'd)      0.00000(cons'd)      0.00147         *
 * In             11      0.00000(cons'd)      0.00000(cons'd)      0.00147         *
 * In             12      0.00000(cons'd)      0.00000(cons'd)      0.00117         *
 *                                                                                  *
 ************************************************************************************
  
 +------------+-------------+-------------+-----------------+ <-- min LBFGS
 |    Step    |   lambda    |   F.delta'  |    enthalpy     | <-- min LBFGS
 +------------+-------------+-------------+-----------------+ <-- min LBFGS
 |  previous  |    0.000000 |    0.010336 |   -23576.674667 | <-- min LBFGS
 | trial step |    1.000000 |   -0.001444 |   -23576.674679 | <-- min LBFGS
 +------------+-------------+-------------+-----------------+ <-- min LBFGS
  
 LBFGS: finished iteration     3 with enthalpy= -2.35766747E+004 eV
  
 +-----------+-----------------+-----------------+------------+-----+ <-- LBFGS
 | Parameter |      value      |    tolerance    |    units   | OK? | <-- LBFGS
 +-----------+-----------------+-----------------+------------+-----+ <-- LBFGS
 |  dE/ion   |   5.016845E-007 |   2.000000E-005 |         eV | Yes | <-- LBFGS
 |  |F|max   |   1.468462E-003 |   1.000000E-003 |       eV/A | No  | <-- LBFGS
 |  |dR|max  |   5.770369E-004 |   1.000000E-003 |          A | Yes | <-- LBFGS
 +-----------+-----------------+-----------------+------------+-----+ <-- LBFGS
  

================================================================================
 Starting LBFGS iteration          4 ...
================================================================================
  
 +------------+-------------+-------------+-----------------+ <-- min LBFGS
 |    Step    |   lambda    |   F.delta'  |    enthalpy     | <-- min LBFGS
 +------------+-------------+-------------+-----------------+ <-- min LBFGS
 |  previous  |    0.000000 |    0.001545 |   -23576.674679 | <-- min LBFGS
 +------------+-------------+-------------+-----------------+ <-- min LBFGS
  

--------------------------------------------------------------------------------
 LBFGS: starting iteration         4 with trial guess (lambda=  1.000000)
--------------------------------------------------------------------------------

                           -------------------------------
                                     Cell Contents
                           -------------------------------

            xxxxxxxxxxxxxxxxxxxxxxxxxxxxxxxxxxxxxxxxxxxxxxxxxxxxxxxxxxxxxxxxx
            x  Element         Atom        Fractional coordinates of atoms  x
            x                 Number           u          v          w      x
            x---------------------------------------------------------------x
            x  P                 1         0.250000   0.541279   0.904456   x
            x  P                 2         0.250000   0.078784   0.741937   x
            x  P                 3         0.750000   0.578784   0.741937   x
            x  P                 4         0.750000   0.041279   0.904456   x
            x  P                 5         0.750000   0.191056   0.255423   x
            x  P                 6         0.750000   0.653617   0.417658   x
            x  P                 7         0.750000   0.116197   0.579812   x
            x  P                 8         0.250000   0.691056   0.255423   x
            x  P                 9         0.250000   0.228645   0.092538   x
            x  P                10         0.750000   0.728645   0.092538   x
            x  P                11         0.250000   0.153617   0.417658   x
            x  P                12         0.250000   0.616197   0.579812   x
            x  In                1         0.000000   0.309802   0.824191   x
            x  In                2         0.500000   0.347310   0.661658   x
            x  In                3         0.500000  -0.190198   0.824191   x
            x  In                4         0.500000  -0.040429   0.175191   x
            x  In                5         0.500000   0.497627   0.010283   x
            x  In                6         0.000000  -0.002373   0.010283   x
            x  In                7         0.000000   0.459571   0.175191   x
            x  In                8         0.000000  -0.152690   0.661658   x
            x  In                9         0.500000  -0.115275   0.499526   x
            x  In               10         0.500000   0.422155   0.337330   x
            x  In               11         0.000000  -0.077845   0.337330   x
            x  In               12         0.000000   0.384725   0.499526   x
            xxxxxxxxxxxxxxxxxxxxxxxxxxxxxxxxxxxxxxxxxxxxxxxxxxxxxxxxxxxxxxxxx


------------------------------------------------------------------------ <-- SCF
SCF loop      Energy           Fermi           Energy gain       Timer   <-- SCF
                               energy          per atom          (sec)   <-- SCF
------------------------------------------------------------------------ <-- SCF
Initial  -2.35766690E+004  0.00000000E+000                       624.70  <-- SCF
      1  -2.35766747E+004  3.71323965E+000   2.35838525E-004     634.94  <-- SCF
      2  -2.35766747E+004  3.71323965E+000   6.36380896E-008     644.51  <-- SCF
      3  -2.35766747E+004  3.71323885E+000   1.30471586E-009     651.93  <-- SCF
      4  -2.35766747E+004  3.71323622E+000   5.81334570E-010     659.81  <-- SCF
------------------------------------------------------------------------ <-- SCF
 
Final energy, E             =  -23576.66899361     eV
Final free energy (E-TS)    =  -23576.67467936     eV
(energies not corrected for finite basis set)
 
NB est. 0K energy (E-0.5TS)      =  -23576.67183649     eV
 

 ******************************** Constrained Forces ********************************
 *                                                                                  *
 *                           Cartesian components (eV/A)                            *
 * -------------------------------------------------------------------------------- *
 *                         x                    y                    z              *
 *                                                                                  *
 * P               1      0.00000(cons'd)      0.00000(cons'd)      0.00021         *
 * P               2      0.00000(cons'd)      0.00000(cons'd)      0.00024         *
 * P               3      0.00000(cons'd)      0.00000(cons'd)      0.00024         *
 * P               4     -0.00000(cons'd)      0.00000(cons'd)      0.00021         *
 * P               5      0.00000(cons'd)     -0.00000(cons'd)      0.00003         *
 * P               6      0.00000(cons'd)     -0.00000(cons'd)     -0.00020         *
 * P               7      0.00000(cons'd)      0.00000(cons'd)     -0.00010         *
 * P               8      0.00000(cons'd)     -0.00000(cons'd)      0.00003         *
 * P               9      0.00000(cons'd)      0.00000(cons'd)      0.00013         *
 * P              10      0.00000(cons'd)     -0.00000(cons'd)      0.00013         *
 * P              11      0.00000(cons'd)     -0.00000(cons'd)     -0.00020         *
 * P              12      0.00000(cons'd)      0.00000(cons'd)     -0.00010         *
 * In              1      0.00000(cons'd)      0.00000(cons'd)      0.00084         *
 * In              2      0.00000(cons'd)      0.00000(cons'd)      0.00084         *
 * In              3      0.00000(cons'd)      0.00000(cons'd)      0.00084         *
 * In              4      0.00000(cons'd)      0.00000(cons'd)     -0.00013         *
 * In              5     -0.00000(cons'd)      0.00000(cons'd)     -0.00028         *
 * In              6      0.00000(cons'd)      0.00000(cons'd)     -0.00029         *
 * In              7      0.00000(cons'd)      0.00000(cons'd)     -0.00013         *
 * In              8      0.00000(cons'd)      0.00000(cons'd)      0.00085         *
 * In              9      0.00000(cons'd)      0.00000(cons'd)     -0.00068         *
 * In             10      0.00000(cons'd)      0.00000(cons'd)     -0.00090         *
 * In             11      0.00000(cons'd)      0.00000(cons'd)     -0.00090         *
 * In             12      0.00000(cons'd)      0.00000(cons'd)     -0.00068         *
 *                                                                                  *
 ************************************************************************************
  
 +------------+-------------+-------------+-----------------+ <-- min LBFGS
 |    Step    |   lambda    |   F.delta'  |    enthalpy     | <-- min LBFGS
 +------------+-------------+-------------+-----------------+ <-- min LBFGS
 |  previous  |    0.000000 |    0.001545 |   -23576.674679 | <-- min LBFGS
 | trial step |    1.000000 |   -0.001341 |   -23576.674679 | <-- min LBFGS
 +------------+-------------+-------------+-----------------+ <-- min LBFGS
  
 LBFGS: finished iteration     4 with enthalpy= -2.35766747E+004 eV
  
 +-----------+-----------------+-----------------+------------+-----+ <-- LBFGS
 | Parameter |      value      |    tolerance    |    units   | OK? | <-- LBFGS
 +-----------+-----------------+-----------------+------------+-----+ <-- LBFGS
 |  dE/ion   |   3.553746E-009 |   2.000000E-005 |         eV | Yes | <-- LBFGS
 |  |F|max   |   9.007254E-004 |   1.000000E-003 |       eV/A | Yes | <-- LBFGS
 |  |dR|max  |   1.410234E-004 |   1.000000E-003 |          A | Yes | <-- LBFGS
 +-----------+-----------------+-----------------+------------+-----+ <-- LBFGS
  
 LBFGS: Geometry optimization completed successfully.

================================================================================
 LBFGS: Final Configuration:
================================================================================

                           -------------------------------
                                     Cell Contents
                           -------------------------------

            xxxxxxxxxxxxxxxxxxxxxxxxxxxxxxxxxxxxxxxxxxxxxxxxxxxxxxxxxxxxxxxxx
            x  Element         Atom        Fractional coordinates of atoms  x
            x                 Number           u          v          w      x
            x---------------------------------------------------------------x
            x  P                 1         0.250000   0.541279   0.904456   x
            x  P                 2         0.250000   0.078784   0.741937   x
            x  P                 3         0.750000   0.578784   0.741937   x
            x  P                 4         0.750000   0.041279   0.904456   x
            x  P                 5         0.750000   0.191056   0.255423   x
            x  P                 6         0.750000   0.653617   0.417658   x
            x  P                 7         0.750000   0.116197   0.579812   x
            x  P                 8         0.250000   0.691056   0.255423   x
            x  P                 9         0.250000   0.228645   0.092538   x
            x  P                10         0.750000   0.728645   0.092538   x
            x  P                11         0.250000   0.153617   0.417658   x
            x  P                12         0.250000   0.616197   0.579812   x
            x  In                1         0.000000   0.309802   0.824191   x
            x  In                2         0.500000   0.347310   0.661658   x
            x  In                3         0.500000  -0.190198   0.824191   x
            x  In                4         0.500000  -0.040429   0.175191   x
            x  In                5         0.500000   0.497627   0.010283   x
            x  In                6         0.000000  -0.002373   0.010283   x
            x  In                7         0.000000   0.459571   0.175191   x
            x  In                8         0.000000  -0.152690   0.661658   x
            x  In                9         0.500000  -0.115275   0.499526   x
            x  In               10         0.500000   0.422155   0.337330   x
            x  In               11         0.000000  -0.077845   0.337330   x
            x  In               12         0.000000   0.384725   0.499526   x
            xxxxxxxxxxxxxxxxxxxxxxxxxxxxxxxxxxxxxxxxxxxxxxxxxxxxxxxxxxxxxxxxx


 LBFGS: Final Enthalpy     = -2.35766747E+004 eV
 LBFGS: Final <frequency>  =     336.27622 cm-1

 ******************* Unconstrained Forces *******************
 *                                                          *
 *               Cartesian components (eV/A)                *
 * -------------------------------------------------------- *
 *                         x            y            z      *
 *                                                          *
 * P               1     -0.08157      1.28657      0.00021 *
 * P               2      0.22012      0.13992      0.00024 *
 * P               3      0.22012      0.13992      0.00024 *
 * P               4     -0.08157      1.28657      0.00021 *
 * P               5      0.00547     -0.06575      0.00003 *
 * P               6      0.00709     -0.00311     -0.00020 *
 * P               7      0.03204      0.01766     -0.00010 *
 * P               8      0.00547     -0.06575      0.00003 *
 * P               9      0.01075     -0.47659      0.00013 *
 * P              10      0.01074     -0.47659      0.00013 *
 * P              11      0.00709     -0.00311     -0.00020 *
 * P              12      0.03204      0.01766     -0.00010 *
 * In              1     -0.24563     -0.34721      0.00084 *
 * In              2     -0.03174     -0.05374      0.00084 *
 * In              3     -0.24563     -0.34721      0.00084 *
 * In              4     -0.15260     -0.02598     -0.00013 *
 * In              5      0.27077     -0.45904     -0.00028 *
 * In              6      0.27077     -0.45904     -0.00029 *
 * In              7     -0.15260     -0.02598     -0.00013 *
 * In              8     -0.03174     -0.05374      0.00085 *
 * In              9     -0.00934     -0.00805     -0.00068 *
 * In             10     -0.02536     -0.00468     -0.00090 *
 * In             11     -0.02536     -0.00468     -0.00090 *
 * In             12     -0.00934     -0.00805     -0.00068 *
 *                                                          *
 ************************************************************

 ******************************** Constrained Forces ********************************
 *                                                                                  *
 *                           Cartesian components (eV/A)                            *
 * -------------------------------------------------------------------------------- *
 *                         x                    y                    z              *
 *                                                                                  *
 * P               1      0.00000(cons'd)      0.00000(cons'd)      0.00021         *
 * P               2      0.00000(cons'd)      0.00000(cons'd)      0.00024         *
 * P               3      0.00000(cons'd)      0.00000(cons'd)      0.00024         *
 * P               4     -0.00000(cons'd)      0.00000(cons'd)      0.00021         *
 * P               5      0.00000(cons'd)     -0.00000(cons'd)      0.00003         *
 * P               6      0.00000(cons'd)     -0.00000(cons'd)     -0.00020         *
 * P               7      0.00000(cons'd)      0.00000(cons'd)     -0.00010         *
 * P               8      0.00000(cons'd)     -0.00000(cons'd)      0.00003         *
 * P               9      0.00000(cons'd)      0.00000(cons'd)      0.00013         *
 * P              10      0.00000(cons'd)     -0.00000(cons'd)      0.00013         *
 * P              11      0.00000(cons'd)     -0.00000(cons'd)     -0.00020         *
 * P              12      0.00000(cons'd)      0.00000(cons'd)     -0.00010         *
 * In              1      0.00000(cons'd)      0.00000(cons'd)      0.00084         *
 * In              2      0.00000(cons'd)      0.00000(cons'd)      0.00084         *
 * In              3      0.00000(cons'd)      0.00000(cons'd)      0.00084         *
 * In              4      0.00000(cons'd)      0.00000(cons'd)     -0.00013         *
 * In              5     -0.00000(cons'd)      0.00000(cons'd)     -0.00028         *
 * In              6      0.00000(cons'd)      0.00000(cons'd)     -0.00029         *
 * In              7      0.00000(cons'd)      0.00000(cons'd)     -0.00013         *
 * In              8      0.00000(cons'd)      0.00000(cons'd)      0.00085         *
 * In              9      0.00000(cons'd)      0.00000(cons'd)     -0.00068         *
 * In             10      0.00000(cons'd)      0.00000(cons'd)     -0.00090         *
 * In             11      0.00000(cons'd)      0.00000(cons'd)     -0.00090         *
 * In             12      0.00000(cons'd)      0.00000(cons'd)     -0.00068         *
 *                                                                                  *
 ************************************************************************************

 Pseudo atomic calculation performed for P 3s2 3p3

 Converged in 23 iterations to a total energy of -208.0292 eV

 Pseudo atomic calculation performed for In 4d10 5s2 5p1

 Converged in 42 iterations to a total energy of -1747.4500 eV
Charge spilling parameter for spin component 1 = 0.18%

            Orbital Populations       
     Ion    Atom   Orbital             Charge
  -------------------------------------------
      P     1      S                    1.738
      P     1      Px                   1.304
      P     1      Py                   1.370
      P     1      Pz                   1.268
      P     2      S                    1.732
      P     2      Px                   1.310
      P     2      Py                   1.312
      P     2      Pz                   1.319
      P     3      S                    1.732
      P     3      Px                   1.310
      P     3      Py                   1.312
      P     3      Pz                   1.319
      P     4      S                    1.738
      P     4      Px                   1.304
      P     4      Py                   1.370
      P     4      Pz                   1.268
      P     5      S                    1.729
      P     5      Px                   1.315
      P     5      Py                   1.316
      P     5      Pz                   1.320
      P     6      S                    1.728
      P     6      Px                   1.316
      P     6      Py                   1.316
      P     6      Pz                   1.322
      P     7      S                    1.728
      P     7      Px                   1.316
      P     7      Py                   1.316
      P     7      Pz                   1.322
      P     8      S                    1.729
      P     8      Px                   1.315
      P     8      Py                   1.316
      P     8      Pz                   1.320
      P     9      S                    1.743
      P     9      Px                   1.300
      P     9      Py                   1.296
      P     9      Pz                   1.315
      P    10      S                    1.743
      P    10      Px                   1.300
      P    10      Py                   1.296
      P    10      Pz                   1.315
      P    11      S                    1.728
      P    11      Px                   1.316
      P    11      Py                   1.316
      P    11      Pz                   1.322
      P    12      S                    1.728
      P    12      Px                   1.316
      P    12      Py                   1.316
      P    12      Pz                   1.322
     In     1      Dzz                  1.999
     In     1      Dzy                  1.997
     In     1      Dzx                  1.997
     In     1      Dxx-yy               1.999
     In     1      Dxy                  1.996
     In     1      S                    1.429
     In     1      Px                   0.496
     In     1      Py                   0.481
     In     1      Pz                   0.476
     In     1      S                   -0.523
     In     2      Dzz                  1.999
     In     2      Dzy                  1.997
     In     2      Dzx                  1.997
     In     2      Dxx-yy               1.999
     In     2      Dxy                  1.997
     In     2      S                    1.438
     In     2      Px                   0.492
     In     2      Py                   0.491
     In     2      Pz                   0.475
     In     2      S                   -0.568
     In     3      Dzz                  1.999
     In     3      Dzy                  1.997
     In     3      Dzx                  1.997
     In     3      Dxx-yy               1.999
     In     3      Dxy                  1.996
     In     3      S                    1.429
     In     3      Px                   0.496
     In     3      Py                   0.481
     In     3      Pz                   0.476
     In     3      S                   -0.523
     In     4      Dzz                  1.999
     In     4      Dzy                  1.997
     In     4      Dzx                  1.997
     In     4      Dxx-yy               1.999
     In     4      Dxy                  1.997
     In     4      S                    1.437
     In     4      Px                   0.493
     In     4      Py                   0.490
     In     4      Pz                   0.470
     In     4      S                   -0.523
     In     5      Dzz                  1.998
     In     5      Dzy                  1.998
     In     5      Dzx                  1.995
     In     5      Dxx-yy               1.999
     In     5      Dxy                  1.997
     In     5      S                    1.464
     In     5      Px                   0.458
     In     5      Py                   0.432
     In     5      Pz                   0.501
     In     5      S                   -0.511
     In     6      Dzz                  1.998
     In     6      Dzy                  1.998
     In     6      Dzx                  1.995
     In     6      Dxx-yy               1.999
     In     6      Dxy                  1.997
     In     6      S                    1.464
     In     6      Px                   0.458
     In     6      Py                   0.432
     In     6      Pz                   0.501
     In     6      S                   -0.511
     In     7      Dzz                  1.999
     In     7      Dzy                  1.997
     In     7      Dzx                  1.997
     In     7      Dxx-yy               1.999
     In     7      Dxy                  1.997
     In     7      S                    1.437
     In     7      Px                   0.493
     In     7      Py                   0.490
     In     7      Pz                   0.470
     In     7      S                   -0.523
     In     8      Dzz                  1.999
     In     8      Dzy                  1.997
     In     8      Dzx                  1.997
     In     8      Dxx-yy               1.999
     In     8      Dxy                  1.997
     In     8      S                    1.438
     In     8      Px                   0.492
     In     8      Py                   0.491
     In     8      Pz                   0.475
     In     8      S                   -0.568
     In     9      Dzz                  1.999
     In     9      Dzy                  1.997
     In     9      Dzx                  1.997
     In     9      Dxx-yy               1.999
     In     9      Dxy                  1.997
     In     9      S                    1.436
     In     9      Px                   0.490
     In     9      Py                   0.490
     In     9      Pz                   0.476
     In     9      S                   -0.577
     In    10      Dzz                  1.999
     In    10      Dzy                  1.997
     In    10      Dzx                  1.997
     In    10      Dxx-yy               1.999
     In    10      Dxy                  1.997
     In    10      S                    1.439
     In    10      Px                   0.489
     In    10      Py                   0.489
     In    10      Pz                   0.475
     In    10      S                   -0.583
     In    11      Dzz                  1.999
     In    11      Dzy                  1.997
     In    11      Dzx                  1.997
     In    11      Dxx-yy               1.999
     In    11      Dxy                  1.997
     In    11      S                    1.439
     In    11      Px                   0.489
     In    11      Py                   0.489
     In    11      Pz                   0.475
     In    11      S                   -0.583
     In    12      Dzz                  1.999
     In    12      Dzy                  1.997
     In    12      Dzx                  1.997
     In    12      Dxx-yy               1.999
     In    12      Dxy                  1.997
     In    12      S                    1.436
     In    12      Px                   0.490
     In    12      Py                   0.490
     In    12      Pz                   0.476
     In    12      S                   -0.577
  -------------------------------------------
                           Total:     216.000
  -------------------------------------------

     Atomic Populations (Mulliken)
     -----------------------------
Species          Ion     s       p       d       f      Total   Charge (e)
==========================================================================
  P               1     1.738   3.941   0.000   0.000   5.679    -0.679
  P               2     1.732   3.942   0.000   0.000   5.673    -0.673
  P               3     1.732   3.942   0.000   0.000   5.673    -0.673
  P               4     1.738   3.941   0.000   0.000   5.679    -0.679
  P               5     1.729   3.951   0.000   0.000   5.680    -0.680
  P               6     1.728   3.954   0.000   0.000   5.682    -0.682
  P               7     1.728   3.953   0.000   0.000   5.681    -0.681
  P               8     1.729   3.951   0.000   0.000   5.680    -0.680
  P               9     1.743   3.912   0.000   0.000   5.654    -0.654
  P              10     1.743   3.912   0.000   0.000   5.654    -0.654
  P              11     1.728   3.954   0.000   0.000   5.682    -0.682
  P              12     1.728   3.953   0.000   0.000   5.681    -0.681
  In              1     0.906   1.452   9.988   0.000  12.347     0.653
  In              2     0.871   1.458   9.988   0.000  12.317     0.683
  In              3     0.906   1.452   9.988   0.000  12.347     0.653
  In              4     0.914   1.454   9.988   0.000  12.355     0.645
  In              5     0.953   1.391   9.987   0.000  12.331     0.669
  In              6     0.953   1.391   9.987   0.000  12.331     0.669
  In              7     0.914   1.454   9.988   0.000  12.355     0.645
  In              8     0.871   1.458   9.988   0.000  12.317     0.683
  In              9     0.859   1.455   9.988   0.000  12.303     0.697
  In             10     0.855   1.454   9.988   0.000  12.297     0.703
  In             11     0.855   1.454   9.988   0.000  12.297     0.703
  In             12     0.859   1.455   9.988   0.000  12.303     0.697
==========================================================================

                 Bond                   Population      Length (A)
======================================================================
              P 1  -- In 5                   0.99        2.38738
              P 4  -- In 6                   0.99        2.38738
              P 8  -- In 7                   0.62        2.52402
              P 5  -- In 4                   0.62        2.52402
              P 5  -- In 7                   0.58        2.52402
              P 8  -- In 4                   0.58        2.52402
              P 1  -- In 1                   0.66        2.52435
              P 4  -- In 3                   0.66        2.52435
              P 1  -- In 3                   0.65        2.52435
              P 4  -- In 1                   0.65        2.52435
              P 3  -- In 2                   0.58        2.52449
              P 2  -- In 8                   0.58        2.52449
              P 2  -- In 2                   0.61        2.52449
              P 3  -- In 8                   0.61        2.52449
              P 7  -- In 9                   0.62        2.52456
              P 12 -- In 12                  0.62        2.52456
              P 12 -- In 9                   0.62        2.52456
              P 7  -- In 12                  0.62        2.52456
              P 6  -- In 10                  0.60        2.52498
              P 11 -- In 11                  0.60        2.52498
              P 11 -- In 10                  0.60        2.52498
              P 6  -- In 11                  0.60        2.52498
              P 7  -- In 8                   0.56        2.54022
              P 12 -- In 8                   0.56        2.54022
              P 7  -- In 2                   0.56        2.54022
              P 12 -- In 2                   0.56        2.54022
              P 11 -- In 12                  0.57        2.54044
              P 6  -- In 12                  0.57        2.54044
              P 11 -- In 9                   0.57        2.54044
              P 6  -- In 9                   0.57        2.54044
              P 8  -- In 11                  0.57        2.54083
              P 5  -- In 11                  0.57        2.54083
              P 8  -- In 10                  0.57        2.54083
              P 5  -- In 10                  0.57        2.54083
              P 3  -- In 3                   0.55        2.54434
              P 2  -- In 3                   0.59        2.54434
              P 3  -- In 1                   0.59        2.54434
              P 2  -- In 1                   0.55        2.54434
              P 9  -- In 6                   0.64        2.54435
              P 10 -- In 5                   0.64        2.54435
              P 10 -- In 6                   0.48        2.54435
              P 9  -- In 5                   0.48        2.54435
              P 10 -- In 4                   0.55        2.54839
              P 10 -- In 7                   0.55        2.54839
              P 9  -- In 4                   0.55        2.54839
              P 9  -- In 7                   0.55        2.54839
======================================================================


     Hirshfeld Analysis
     ------------------
Species   Ion     Hirshfeld Charge (e)
======================================
  P        1                -0.28
  P        2                -0.23
  P        3                -0.23
  P        4                -0.28
  P        5                -0.24
  P        6                -0.24
  P        7                -0.24
  P        8                -0.24
  P        9                -0.23
  P       10                -0.23
  P       11                -0.24
  P       12                -0.24
  In       1                 0.24
  In       2                 0.24
  In       3                 0.24
  In       4                 0.23
  In       5                 0.27
  In       6                 0.27
  In       7                 0.23
  In       8                 0.24
  In       9                 0.24
  In      10                 0.24
  In      11                 0.24
  In      12                 0.24
======================================

 
 A BibTeX formatted list of references used in this run has been written to 
 StackingFaultStructs_(0_0_1)_(1_0_0)_2.bib
 
Initialisation time =     20.13 s
Calculation time    =    654.48 s
Finalisation time   =      0.94 s
Total time          =    675.55 s
Peak Memory Use     = 2158300 kB
 
Overall parallel efficiency rating: Mediocre (55%)
 
Data was distributed by:-
G-vector (6-way); efficiency rating: Mediocre (59%)
k-point (40-way); efficiency rating: Very good (86%)
