 +-------------------------------------------------+
 |                                                 |
 |      CCC   AA    SSS  TTTTT  EEEEE  PPPP        |
 |     C     A  A  S       T    E      P   P       |
 |     C     AAAA   SS     T    EEE    PPPP        |
 |     C     A  A     S    T    E      P           |
 |      CCC  A  A  SSS     T    EEEEE  P           |
 |                                                 |
 +-------------------------------------------------+
 |                                                 |
 | Welcome to Academic Release CASTEP version 24.1 |
 | Ab Initio Total Energy Program                  |
 |                                                 |
 | Authors:                                        |
 | M. Segall, M. Probert, C. Pickard, P. Hasnip,   |
 | S. Clark, K. Refson, J. R. Yates,               |
 | A. Bartok-Partay, M. Payne                      |
 |                                                 |
 | Contributors:                                   |
 | P. Lindan, P. Haynes, J. White, V. Milman,      |
 | N. Govind, M. Gibson, P. Tulip, V. Cocula,      |
 | B. Montanari, D. Quigley, M. Glover,            |
 | L. Bernasconi, A. Perlov, M. Plummer,           |
 | E. McNellis, J. Meyer, J. Gale, D. Jochym       |
 | J. Aarons, B. Walker, R. Gillen, D. Jones       |
 | T. Green, I. J. Bush, C. J. Armstrong,          |
 | E. J. Higgins, E. L. Brown, M. S. McFly,        |
 | J. Wilkins, B-C. Shih, P. J. P. Byrne,          |
 | R. J. Maurer, J. C. Womack, J. Dziedzic,        |
 | L. LeBlanc, T. K. Stenczel, J. Kermode,         |
 | S. Sturniolo, B. Shi, B. Durham, M. Evans,      |
 | M. J. Smith, A. Tamerus, Z. Hawkhead,           |
 | V. Ravindran, T. Hollins, S. A. Joyce,          |
 | R. T. Strong, A. M. Reilly, S. J. Donaldson     |
 |                                                 |
 | Copyright (c) 2000 - 2023                       |
 |                                                 |
 |     Distributed under license from Cambridge    |
 |     Enterprise for academic use only.           |
 |                                                 |
 | Please cite                                     |
 |                                                 |
 |     "First principles methods using CASTEP"     |
 |                                                 |
 |         Zeitschrift fuer Kristallographie       |
 |           220(5-6) pp. 567-570 (2005)           |
 |                                                 |
 | S. J. Clark, M. D. Segall, C. J. Pickard,       |
 | P. J. Hasnip, M. J. Probert, K. Refson,         |
 | M. C. Payne                                     |
 |                                                 |
 |       in all publications arising from          |
 |              your use of CASTEP                 |
 |                                                 |
 +-------------------------------------------------+
 |                                                 |
 |              http://www.castep.org              |
 |                                                 |
 +-------------------------------------------------+



 Compiled for  GNU 11.2.0 on 04-04-2024 18:39:17
 from code version 6355fd106 Castep241_branch Thu Mar 7 17:56:19 2024 +0000
 Compiler: GNU Fortran 11.2.0; Optimisation: FAST
 Comms   : MPI VERSION : CRAY MPICH version 8.1.23.14 (ANL base 3.4a2)
 MATHLIBS: default (LAPACK version 3.10.1)
 FFT Lib : fftw3 version commercial-fftw-3.3.10-sse2-avx-avx2-avx2_128
 Fundamental constants values: CODATA 2018

 Run started: Tue, 29 Jul 2025 23:00:49 +0100

 Atomic calculation performed for P: 1s2 2s2 2p6 3s2 3p3

 Converged in 47 iterations to an ae energy of -9309.074 eV

   ============================================================                
   | Pseudopotential Report - Date of generation 29-07-2025   |                
   ------------------------------------------------------------                
   | Element: P Ionic charge:  5.00 Level of theory: RSCAN    |                
   | Atomic Solver: Koelling-Harmon                           |                
   |                                                          |                
   |               Reference Electronic Structure             |                
   |         Orbital         Occupation         Energy        |                
   |            3s              2.000           -0.535        |                
   |            3p              3.000           -0.209        |                
   |                                                          |                
   |                 Pseudopotential Definition               |                
   |        Beta     l      e      Rc     scheme   norm       |                
   |          1      0   -0.535   1.807     qc      0         |                
   |          2      0    0.250   1.807     qc      0         |                
   |          3      1   -0.209   1.807     qc      0         |                
   |          4      1    0.250   1.807     qc      0         |                
   |          5      2    0.000   1.807     qc      0         |                
   |          6      2    0.250   1.807     qc      0         |                
   |         loc     3    0.000   1.807     pn      0         |                
   |                                                          |                
   | Augmentation charge Rinner = 1.263                       |                
   | Partial core correction Rc = 1.263                       |                
   ------------------------------------------------------------                
   | "3|1.8|4|4|5|30:31:32"                                   |                
   ------------------------------------------------------------                
   |      Author: Chris J. Pickard, Cambridge University      |                
   ============================================================                
 Warning: otfg_output_psp cannot write out meta-GGA pseudopotentials presently.

 Atomic calculation performed for In:
 1s2 2s2 2p6 3s2 3p6 3d10 4s2 4p6 4d10 5s2 5p1

 Converged in 84 iterations to an ae energy of -160093.328 eV

   ============================================================                
   | Pseudopotential Report - Date of generation 29-07-2025   |                
   ------------------------------------------------------------                
   | Element: In Ionic charge: 13.00 Level of theory: RSCAN   |                
   | Atomic Solver: Koelling-Harmon                           |                
   |                                                          |                
   |               Reference Electronic Structure             |                
   |         Orbital         Occupation         Energy        |                
   |            4d             10.000           -0.711        |                
   |            5s              2.000           -0.313        |                
   |            5p              1.000           -0.095        |                
   |                                                          |                
   |                 Pseudopotential Definition               |                
   |        Beta     l      e      Rc     scheme   norm       |                
   |          1      0   -0.313   2.501     qc      0         |                
   |          2      0    0.250   2.501     qc      0         |                
   |          3      1   -0.095   2.501     qc      0         |                
   |          4      1    0.250   2.501     qc      0         |                
   |          5      2   -0.711   2.207     qc      0         |                
   |          6      2    0.250   2.207     qc      0         |                
   |         loc     3    0.000   2.501     pn      0         |                
   |                                                          |                
   | Augmentation charge Rinner = 1.504                       |                
   | Partial core correction Rc = 1.504                       |                
   ------------------------------------------------------------                
   | "3|2.5|2.5|1.5|7|8|9|50:51:42U2.2U2.2"                   |                
   ------------------------------------------------------------                
   |      Author: Chris J. Pickard, Cambridge University      |                
   ============================================================                
 Warning: otfg_output_psp cannot write out meta-GGA pseudopotentials presently.

 Pseudo atomic calculation performed for P 3s2 3p3

 Converged in 23 iterations to a total energy of -208.0292 eV

 Pseudo atomic calculation performed for In 4d10 5s2 5p1

 Converged in 42 iterations to a total energy of -1747.4501 eV
 Calculation parallelised over 108 processes.
 Data is distributed by G-vector(3-way) and k-point(36-way)
 Each process may use up to 16 threads.

 ************************************ Title ************************************
 

 ***************************** General Parameters ******************************
  
 output verbosity                               : normal  (1)
 write checkpoint data to                       : In_Vacancy_Migration_15->60_Singlepoints_6.check
 type of calculation                            : single point energy
 stress calculation                             : off
 density difference calculation                 : off
 electron localisation func (ELF) calculation   : off
 Hirshfeld analysis                             : on
 polarisation (Berry phase) analysis            : off
 molecular orbital projected DOS                : off
 deltaSCF calculation                           : off
 unlimited duration calculation
 timing information                             : on
 memory usage estimate                          : on
 write extra output files                       : on
 write final potential to formatted file        : off
 write final density to formatted file          : off
 write BibTeX reference list                    : on
 write OTFG pseudopotential files               : on
 write electrostatic potential file             : on
 write bands file                               : on
 checkpoint writing                             : off
  
 output         length unit                     : A
 output           mass unit                     : amu
 output           time unit                     : ps
 output         charge unit                     : e
 output           spin unit                     : hbar/2
 output         energy unit                     : eV
 output          force unit                     : eV/A
 output       velocity unit                     : A/ps
 output       pressure unit                     : GPa
 output     inv_length unit                     : 1/A
 output      frequency unit                     : cm-1
 output force constant unit                     : eV/A**2
 output         volume unit                     : A**3
 output   IR intensity unit                     : (D/A)**2/amu
 output         dipole unit                     : D
 output         efield unit                     : eV/A/e
 output        entropy unit                     : J/mol/K
 output    efield chi2 unit                     : pm/V
  
 wavefunctions paging                           : none
 random number generator seed                   :  230049931
 data distribution                              : optimal for this architecture
 optimization strategy                          : balance speed and memory

 *********************** Exchange-Correlation Parameters ***********************
  
 using functional                               : RSCAN
 relativistic treatment                         : Koelling-Harmon
 DFT+D: Semi-empirical dispersion correction    : off

 ************************* Pseudopotential Parameters **************************
  
 pseudopotential representation                 : reciprocal space
 <beta|phi> representation                      : reciprocal space
 spin-orbit coupling                            : off

 **************************** Basis Set Parameters *****************************
  
 plane wave basis set cut-off                   :   900.0000   eV
 size of standard grid                          :     2.0000
 size of   fine   gmax                          :    30.7390   1/A
 finite basis set correction                    : none

 **************************** Electronic Parameters ****************************
  
 number of  electrons                           :  563.0    
 net charge of system                           :  0.000    
 net spin   of system                           :  1.000    
 number of  up  spins                           :  282.0    
 number of down spins                           :  281.0    
 treating system as spin-polarized
 number of bands                                :        338

 ********************* Electronic Minimization Parameters **********************
  
 Method: Treating system as metallic with density mixing treatment of electrons,
         and number of  SD  steps               :          1
         and number of  CG  steps               :          4
  
 total energy / atom convergence tol.           : 0.1000E-07   eV
 eigen-energy convergence tolerance             : 0.2234E-08   eV
 max force / atom convergence tol.              : ignored
 convergence tolerance window                   :          3   cycles
 max. number of SCF cycles                      :        100
 number of fixed-spin iterations                :         10
 smearing scheme                                : Gaussian
 smearing width                                 : 0.2000       eV
 Fermi energy convergence tolerance             : 0.2721E-13   eV
 periodic dipole correction                     : NONE

 ************************** Density Mixing Parameters **************************
  
 density-mixing scheme                          : Pulay
 max. length of mixing history                  :         20
 charge density mixing amplitude                : 0.5000    
   spin density mixing amplitude                :  2.000    
 cut-off energy for mixing                      :  900.0       eV

 *********************** Population Analysis Parameters ************************
  
 Population analysis with cutoff                :  3.000       A
 Population analysis output                     : summary and pdos components

 *******************************************************************************
  

                           -------------------------------
                                      Unit Cell
                           -------------------------------
        Real Lattice(A)                      Reciprocal Lattice(1/A)
    11.8016820    -0.0000080    -0.0000080        0.532397442   0.000000361   0.000000361
    -0.0000080    11.8016820    -0.0000080        0.000000361   0.532397442   0.000000361
    -0.0000080    -0.0000080    11.8016820        0.000000361   0.000000361   0.532397442

                       Lattice parameters(A)       Cell Angles
                    a =     11.801682          alpha =   90.000078
                    b =     11.801682          beta  =   90.000078
                    c =     11.801682          gamma =   90.000078

                       Current cell volume =          1643.734705       A**3
                                   density =             2.768402   AMU/A**3
                                           =             4.597040     g/cm^3

                           -------------------------------
                                     Cell Contents
                           -------------------------------
                         Total number of ions in cell =   63
                      Total number of species in cell =    2
                        Max number of any one species =   32

            xxxxxxxxxxxxxxxxxxxxxxxxxxxxxxxxxxxxxxxxxxxxxxxxxxxxxxxxxxxx
            x  Element    Atom        Fractional coordinates of atoms  x
            x            Number           u          v          w      x
            x----------------------------------------------------------x
            x  P            1         0.126581   0.126581   0.388039   x 
            x  P            2         0.371121   0.120975   0.129379   x 
            x  P            3         0.120975   0.371121   0.129379   x 
            x  P            4         0.400008   0.400008   0.344656   x 
            x  P            5         0.124246   0.124246   0.874607   x 
            x  P            6         0.366221   0.135430   0.615637   x 
            x  P            7         0.135430   0.366221   0.615637   x 
            x  P            8         0.371643   0.371643   0.876994   x 
            x  P            9         0.121542   0.622685   0.375606   x 
            x  P           10         0.372511   0.630001   0.117266   x 
            x  P           11         0.124006   0.874528   0.125217   x 
            x  P           12         0.372632   0.872215   0.377339   x 
            x  P           13         0.118691   0.623463   0.879265   x 
            x  P           14         0.366953   0.621041   0.631809   x 
            x  P           15         0.122158   0.872595   0.626447   x 
            x  P           16         0.372994   0.879313   0.868357   x 
            x  P           17         0.622685   0.121542   0.375606   x 
            x  P           18         0.874528   0.124006   0.125217   x 
            x  P           19         0.630001   0.372511   0.117266   x 
            x  P           20         0.872215   0.372632   0.377339   x 
            x  P           21         0.623463   0.118691   0.879265   x 
            x  P           22         0.872595   0.122158   0.626447   x 
            x  P           23         0.621041   0.366953   0.631809   x 
            x  P           24         0.879313   0.372994   0.868357   x 
            x  P           25         0.617168   0.617168   0.382306   x 
            x  P           26         0.870423   0.621682   0.127897   x 
            x  P           27         0.621682   0.870423   0.127897   x 
            x  P           28         0.872689   0.872689   0.373188   x 
            x  P           29         0.623059   0.623059   0.873649   x 
            x  P           30         0.872669   0.622980   0.622567   x 
            x  P           31         0.622980   0.872669   0.622567   x 
            x  P           32         0.872288   0.872288   0.876581   x 
            x  In           1        -0.001019  -0.001019  -0.000688   x 
            x  In           2         0.243201   0.000273   0.258995   x 
            x  In           3         0.000273   0.243201   0.258995   x 
            x  In           4         0.247818   0.247818   0.003959   x 
            x  In           5        -0.002967  -0.002968   0.500549   x 
            x  In           6         0.248834   0.007202   0.741205   x 
            x  In           7         0.007202   0.248834   0.741205   x 
            x  In           8         0.488757   0.488757   0.513952   x 
            x  In           9        -0.004427   0.495270   0.004042   x 
            x  In          10         0.245691   0.506165   0.243172   x 
            x  In          11        -0.001543   0.747960   0.248934   x 
            x  In          12         0.248602   0.754960  -0.006646   x 
            x  In          13         0.001884   0.492828   0.503898   x 
            x  In          14         0.239430   0.493727   0.754133   x 
            x  In          15        -0.003786   0.747368   0.750143   x 
            x  In          16         0.247157   0.746642   0.501288   x 
            x  In          17         0.495270  -0.004427   0.004042   x 
            x  In          18         0.747960  -0.001543   0.248934   x 
            x  In          19         0.506165   0.245691   0.243172   x 
            x  In          20         0.754960   0.248602  -0.006646   x 
            x  In          21         0.492828   0.001884   0.503898   x 
            x  In          22         0.747368  -0.003786   0.750143   x 
            x  In          23         0.493727   0.239430   0.754133   x 
            x  In          24         0.746642   0.247157   0.501288   x 
            x  In          25         0.497820   0.497820  -0.000791   x 
            x  In          26         0.744104   0.497042   0.253790   x 
            x  In          27         0.497042   0.744104   0.253790   x 
            x  In          28         0.746856   0.746856   0.001321   x 
            x  In          29         0.748569   0.497786   0.748664   x 
            x  In          30         0.497786   0.748569   0.748664   x 
            x  In          31         0.746117   0.746117   0.494870   x 
            xxxxxxxxxxxxxxxxxxxxxxxxxxxxxxxxxxxxxxxxxxxxxxxxxxxxxxxxxxxx


                         No user defined ionic velocities

                           -------------------------------
                                   Details of Species
                           -------------------------------

                               Mass of species in AMU
                                    P   30.9737600
                                    In  114.8180000

                          Electric Quadrupole Moment (Barn)
                                    P    1.0000000 No Isotope Defined
                                    In    0.7700000 Isotope115

                          Files used for pseudopotentials:
                                    P 3|1.8|4|4|5|30:31:32
                                    In 3|2.5|2.5|1.5|7|8|9|50:51:42U2.2U2.2

                           -------------------------------
                              k-Points For BZ Sampling
                           -------------------------------
                       MP grid size for SCF calculation is  4  4  4
                            with an offset of   0.125  0.125  0.125
                       Number of kpoints used =            36

                           -------------------------------
                               Symmetry and Constraints
                           -------------------------------

                      Maximum deviation from symmetry =  0.00000         ANG

                      Number of symmetry operations   =           1
                      Number of ionic constraints     =           3
                      Point group of crystal =     1: C1, 1, 1
                      Space group of crystal =     8: Cm, C -2y

             Set iprint > 1 for details on symmetry rotations/translations

                         Centre of mass is constrained
             Set iprint > 1 for details of linear ionic constraints

                         Number of cell constraints= 0
                         Cell constraints are:  1 2 3 4 5 6

                         External pressure/stress (GPa)
                          0.00000   0.00000   0.00000
                                    0.00000   0.00000
                                              0.00000
 
+---------------- MEMORY AND SCRATCH DISK ESTIMATES PER PROCESS --------------+
|                                                     Memory          Disk    |
| Baseline code, static data and system overhead      368.0 MB         0.0 MB |
| BLAS internal memory storage                          0.0 MB         0.0 MB |
| Model and support data                             4296.9 MB         0.0 MB |
| Electronic energy minimisation requirements        1299.4 MB         0.0 MB |
| Force calculation requirements                      127.4 MB         0.0 MB |
|                                               ----------------------------- |
| Approx. total storage required per process         5964.3 MB         0.0 MB |
|                                                                             |
| Requirements will fluctuate during execution and may exceed these estimates |
+-----------------------------------------------------------------------------+
Calculating approximate eigenstates for fixed initial Hamiltonian
Cut-off for approx. calculation is   89.988 eV
Improving approx. states at cut-off of  450.000 eV
Resetting cut-off to  900.000 eV
Calculating total energy with cut-off of  900.000 eV.
------------------------------------------------------------------------ <-- SCF
SCF loop      Energy           Fermi           Energy gain       Timer   <-- SCF
                               energy          per atom          (sec)   <-- SCF
------------------------------------------------------------------------ <-- SCF
Initial  -6.12878505E+004  0.00000000E+000                       436.27  <-- SCF
      1  -6.10546672E+004  1.96876120E+000  -3.70132182E+000     877.90  <-- SCF
      2  -6.10549946E+004  1.96867337E+000   5.19642841E-003    1183.75  <-- SCF
      3  -6.11179900E+004  2.27739911E+000   9.99927256E-001    1525.03  <-- SCF
      4  -6.11290243E+004  2.35973120E+000   1.75146227E-001    2000.67  <-- SCF
      5  -6.11356116E+004  2.44003800E+000   1.04561050E-001    2343.58  <-- SCF
      6  -6.11239799E+004  2.59655418E+000  -1.84629912E-001    2680.41  <-- SCF
      7  -6.11226686E+004  2.62730781E+000  -2.08140444E-002    3022.66  <-- SCF
      8  -6.11223610E+004  2.65387167E+000  -4.88293935E-003    3387.79  <-- SCF
      9  -6.11236966E+004  2.68722069E+000   2.12007342E-002    3739.89  <-- SCF
     10  -6.11238439E+004  2.68009090E+000   2.33766450E-003    4087.18  <-- SCF
     11  -6.11239533E+004  2.67916265E+000   1.73624350E-003    4437.11  <-- SCF
     12  -6.11239856E+004  2.67726363E+000   5.13046280E-004    4783.00  <-- SCF
     13  -6.11240002E+004  2.67525672E+000   2.30669231E-004    5131.12  <-- SCF
     14  -6.11240014E+004  2.67430618E+000   1.90560010E-005    5483.23  <-- SCF
     15  -6.11240017E+004  2.67414809E+000   5.41954309E-006    5835.58  <-- SCF
     16  -6.11240019E+004  2.67409296E+000   3.16461302E-006    6152.35  <-- SCF
     17  -6.11240013E+004  2.67421516E+000  -9.30313411E-006    6515.52  <-- SCF
     18  -6.11240008E+004  2.67445647E+000  -7.58600669E-006    6874.90  <-- SCF
     19  -6.11240008E+004  2.67392788E+000  -8.76464419E-007    7220.02  <-- SCF
     20  -6.11240008E+004  2.67420122E+000  -2.47087781E-007    7560.19  <-- SCF
     21  -6.11240008E+004  2.67400275E+000   7.87143537E-007    7865.55  <-- SCF
     22  -6.11240008E+004  2.67394484E+000   3.61377459E-007    8183.23  <-- SCF
     23  -6.11240009E+004  2.67403890E+000   2.28462487E-007    8485.75  <-- SCF
     24  -6.11240009E+004  2.67409852E+000   7.52450109E-008    8768.50  <-- SCF
     25  -6.11240009E+004  2.67412856E+000   6.53602975E-008    9073.41  <-- SCF
     26  -6.11240008E+004  2.67417334E+000  -8.32838510E-007    9366.45  <-- SCF
     27  -6.11240004E+004  2.67419097E+000  -6.59554565E-006    9684.16  <-- SCF
     28  -6.11239983E+004  2.67420961E+000  -3.29048006E-005    9986.13  <-- SCF
     29  -6.11239998E+004  2.67418879E+000   2.30058238E-005   10279.39  <-- SCF
     30  -6.11239979E+004  2.67422831E+000  -2.93452525E-005   10554.40  <-- SCF
     31  -6.11239990E+004  2.67420104E+000   1.70976111E-005   10831.06  <-- SCF
     32  -6.11239998E+004  2.67419084E+000   1.28794120E-005   11082.94  <-- SCF
     33  -6.11239995E+004  2.67418547E+000  -5.12886161E-006   11332.57  <-- SCF
     34  -6.11239997E+004  2.67418833E+000   3.26156885E-006   11618.49  <-- SCF
     35  -6.11239999E+004  2.67419028E+000   2.94787489E-006   11858.45  <-- SCF
     36  -6.11240000E+004  2.67419384E+000   2.69047303E-006   12100.53  <-- SCF
     37  -6.11240001E+004  2.67419485E+000   9.74939145E-007   12338.21  <-- SCF
     38  -6.11240003E+004  2.67419805E+000   3.65672796E-006   12578.24  <-- SCF
     39  -6.11240004E+004  2.67419865E+000   1.01838160E-006   12812.57  <-- SCF
     40  -6.11240006E+004  2.67419992E+000   2.48977397E-006   13047.55  <-- SCF
     41  -6.11240007E+004  2.67420183E+000   2.49781235E-006   13292.88  <-- SCF
     42  -6.11240006E+004  2.67420166E+000  -2.04397231E-006   13537.26  <-- SCF
     43  -6.11240007E+004  2.67420248E+000   1.66043778E-006   13775.33  <-- SCF
     44  -6.11240007E+004  2.67420301E+000  -4.54480164E-007   14020.86  <-- SCF
     45  -6.11240007E+004  2.67420299E+000   6.78134742E-007   14264.71  <-- SCF
     46  -6.11240007E+004  2.67420377E+000  -3.12143239E-007   14507.41  <-- SCF
     47  -6.11240007E+004  2.67420484E+000   6.66773165E-007   14754.90  <-- SCF
     48  -6.11240007E+004  2.67420552E+000  -8.30930706E-008   14993.52  <-- SCF
     49  -6.11240008E+004  2.67420582E+000   6.37930426E-007   15227.41  <-- SCF
     50  -6.11240008E+004  2.67420593E+000   6.26809854E-007   15462.84  <-- SCF
     51  -6.11240008E+004  2.67420625E+000   6.08620213E-007   15696.11  <-- SCF
     52  -6.11240008E+004  2.67420648E+000   1.04938827E-007   15927.94  <-- SCF
     53  -6.11240008E+004  2.67420634E+000  -6.85399049E-008   16157.69  <-- SCF
     54  -6.11240008E+004  2.67420645E+000   4.72710266E-008   16395.53  <-- SCF
     55  -6.11240009E+004  2.67420637E+000   8.42012584E-008   16626.96  <-- SCF
     56  -6.11240009E+004  2.67420653E+000   3.07609529E-009   16879.91  <-- SCF
     57  -6.11240008E+004  2.67420636E+000  -1.32515852E-007   17121.28  <-- SCF
     58  -6.11240009E+004  2.67420633E+000   1.24978524E-007   17361.29  <-- SCF
     59  -6.11240008E+004  2.67420647E+000  -1.83374838E-007   17606.87  <-- SCF
     60  -6.11240008E+004  2.67420672E+000   3.59393052E-008   17839.30  <-- SCF
     61  -6.11240008E+004  2.67420722E+000  -2.97300357E-007   18083.04  <-- SCF
     62  -6.11240008E+004  2.67420728E+000  -1.73980579E-007   18322.60  <-- SCF
     63  -6.11240008E+004  2.67420759E+000   1.09171036E-007   18559.78  <-- SCF
     64  -6.11240008E+004  2.67420780E+000   1.29358636E-008   18790.08  <-- SCF
     65  -6.11240008E+004  2.67420785E+000   3.28259888E-007   19022.77  <-- SCF
     66  -6.11240008E+004  2.67420809E+000   8.91592303E-008   19255.70  <-- SCF
     67  -6.11240009E+004  2.67420821E+000   1.26089069E-007   19490.69  <-- SCF
     68  -6.11240009E+004  2.67420815E+000  -5.50601611E-008   19726.36  <-- SCF
     69  -6.11240009E+004  2.67420807E+000   3.02859956E-007   19962.38  <-- SCF
     70  -6.11240009E+004  2.67420801E+000  -2.58230156E-009   20202.99  <-- SCF
     71  -6.11240009E+004  2.67420798E+000  -7.73985329E-008   20437.77  <-- SCF
     72  -6.11240009E+004  2.67420807E+000  -3.32766689E-008   20668.66  <-- SCF
     73  -6.11240008E+004  2.67420805E+000  -5.63448497E-007   20899.65  <-- SCF
     74  -6.11240008E+004  2.67420828E+000   1.92668530E-007   21140.70  <-- SCF
     75  -6.11240008E+004  2.67420805E+000   9.07580691E-008   21368.83  <-- SCF
     76  -6.11240009E+004  2.67420763E+000   2.82715961E-007   21602.28  <-- SCF
     77  -6.11240009E+004  2.67420757E+000  -5.30472740E-008   21838.22  <-- SCF
     78  -6.11240009E+004  2.67420848E+000   8.38890134E-007   22066.32  <-- SCF
     79  -6.11240009E+004  2.67420848E+000   1.58456521E-007   22302.36  <-- SCF
     80  -6.11240010E+004  2.67420823E+000   5.37514506E-007   22538.42  <-- SCF
     81  -6.11240010E+004  2.67420827E+000   4.00926329E-007   22771.42  <-- SCF
     82  -6.11240010E+004  2.67420774E+000  -7.00784436E-008   23008.36  <-- SCF
     83  -6.11240011E+004  2.67420799E+000   1.29081235E-006   23238.55  <-- SCF
     84  -6.11240010E+004  2.67420799E+000  -2.57264175E-007   23471.34  <-- SCF
     85  -6.11240010E+004  2.67420819E+000  -1.10450304E-007   23705.67  <-- SCF
     86  -6.11240010E+004  2.67420864E+000  -3.59317039E-007   23934.72  <-- SCF
     87  -6.11240010E+004  2.67420895E+000  -2.24685770E-007   24168.62  <-- SCF
     88  -6.11240010E+004  2.67420907E+000  -4.61125166E-007   24406.51  <-- SCF
     89  -6.11240010E+004  2.67420927E+000  -2.70481504E-007   24644.97  <-- SCF
     90  -6.11240010E+004  2.67420947E+000   2.24249919E-009   24886.90  <-- SCF
     91  -6.11240009E+004  2.67420949E+000  -8.09232459E-008   25130.21  <-- SCF
     92  -6.11240009E+004  2.67420940E+000   1.40854955E-008   25375.40  <-- SCF
     93  -6.11240009E+004  2.67420959E+000  -4.41625617E-007   25611.10  <-- SCF
     94  -6.11240009E+004  2.67420944E+000   7.87917226E-008   25843.48  <-- SCF
     95  -6.11240009E+004  2.67420935E+000   8.61290967E-008   26083.39  <-- SCF
     96  -6.11240010E+004  2.67420944E+000   3.44581990E-007   26315.90  <-- SCF
     97  -6.11240010E+004  2.67420948E+000   4.02632805E-007   26548.10  <-- SCF
     98  -6.11240010E+004  2.67420972E+000   2.01427378E-007   26783.98  <-- SCF
     99  -6.11240010E+004  2.67420957E+000  -5.10490593E-007   27026.10  <-- SCF
    100  -6.11240009E+004  2.67420984E+000  -5.17661013E-007   27269.16  <-- SCF
------------------------------------------------------------------------ <-- SCF
 *Warning* max. SCF cycles performed but system has not reached the groundstate.
  
Current total energy, E     =  -61123.78967642     eV
Current free energy (E-TS)  =  -61124.00092638     eV
(energies not corrected for finite basis set)
 
NB est. 0K energy (E-0.5TS)      =  -61123.89530140     eV
 
  ****************************************************************************
  Warning: electronic minimisation did not converge when finding ground state.
  ****************************************************************************
  Writing checkpoint file...
 
Overall parallel efficiency rating: Terrible (29%)
 
Data was distributed by:-
G-vector (3-way); efficiency rating: Terrible (31%)
k-point (36-way); efficiency rating: Very good (81%)
