 +-------------------------------------------------+
 |                                                 |
 |      CCC   AA    SSS  TTTTT  EEEEE  PPPP        |
 |     C     A  A  S       T    E      P   P       |
 |     C     AAAA   SS     T    EEE    PPPP        |
 |     C     A  A     S    T    E      P           |
 |      CCC  A  A  SSS     T    EEEEE  P           |
 |                                                 |
 +-------------------------------------------------+
 |                                                 |
 | Welcome to Academic Release CASTEP version 22.11|
 | Ab Initio Total Energy Program                  |
 |                                                 |
 | Authors:                                        |
 | M. Segall, M. Probert, C. Pickard, P. Hasnip,   |
 | S. Clark, K. Refson, J. R. Yates, M. Payne      |
 |                                                 |
 | Contributors:                                   |
 | P. Lindan, P. Haynes, J. White, V. Milman,      |
 | N. Govind, M. Gibson, P. Tulip, V. Cocula,      |
 | B. Montanari, D. Quigley, M. Glover,            |
 | L. Bernasconi, A. Perlov, M. Plummer,           |
 | E. McNellis, J. Meyer, J. Gale, D. Jochym       |
 | J. Aarons, B. Walker, R. Gillen, D. Jones       |
 | T. Green, I. J. Bush, C. J. Armstrong,          |
 | E. J. Higgins, E. L. Brown, M. S. McFly,        |
 | J. Wilkins, B-C. Shih, P. J. P. Byrne,          |
 | R. J. Maurer, J. C. Womack, J. Dziedzic,        |
 | A. Bartok-Partay, L. LeBlanc, T. K. Stenczel,   |
 | J. Kermode, S. Sturniolo, B. Shi, B. Durham     |
 | M. Evans, M. J. Smith                           |
 |                                                 |
 | Copyright (c) 2000 - 2021                       |
 |                                                 |
 |     Distributed under license from Cambridge    |
 |     Enterprise for academic use only.           |
 |                                                 |
 | Please cite                                     |
 |                                                 |
 |     "First principles methods using CASTEP"     |
 |                                                 |
 |         Zeitschrift fuer Kristallographie       |
 |           220(5-6) pp. 567-570 (2005)           |
 |                                                 |
 | S. J. Clark, M. D. Segall, C. J. Pickard,       |
 | P. J. Hasnip, M. J. Probert, K. Refson,         |
 | M. C. Payne                                     |
 |                                                 |
 |       in all publications arising from          |
 |              your use of CASTEP                 |
 |                                                 |
 +-------------------------------------------------+
 |                                                 |
 |              http://www.castep.org              |
 |                                                 |
 +-------------------------------------------------+



 Compiled for linux_x86_64_gfortran10-XT on Thu, 16 Mar 2023 13:12:36 +0000
 from code version Version unavailable
 Compiler: GNU Fortran 11.2.0; Optimisation: fast
 MATHLIBS: LibSci (LAPACK version 3.10.1)
 FFT Lib : fftw3 version commercial-fftw-3.3.10-sse2-avx-avx2-avx2_128
 Fundamental constants values: CODATA 2014

 Run started: Mon, 25 Mar 2024 14:57:39 +0000

 Atomic calculation performed for P: 1s2 2s2 2p6 3s2 3p3

 Converged in 47 iterations to an ae energy of -9309.074 eV

   ============================================================                
   | Pseudopotential Report - Date of generation 25-03-2024   |                
   ------------------------------------------------------------                
   | Element: P Ionic charge:  5.00 Level of theory: RSCAN    |                
   | Atomic Solver: Koelling-Harmon                           |                
   |                                                          |                
   |               Reference Electronic Structure             |                
   |         Orbital         Occupation         Energy        |                
   |            3s              2.000           -0.535        |                
   |            3p              3.000           -0.209        |                
   |                                                          |                
   |                 Pseudopotential Definition               |                
   |        Beta     l      e      Rc     scheme   norm       |                
   |          1      0   -0.535   1.807     qc      0         |                
   |          2      0    0.250   1.807     qc      0         |                
   |          3      1   -0.209   1.807     qc      0         |                
   |          4      1    0.250   1.807     qc      0         |                
   |          5      2    0.000   1.807     qc      0         |                
   |          6      2    0.250   1.807     qc      0         |                
   |         loc     3    0.000   1.807     pn      0         |                
   |                                                          |                
   | Augmentation charge Rinner = 1.263                       |                
   | Partial core correction Rc = 1.263                       |                
   ------------------------------------------------------------                
   | "3|1.8|4|4|5|30:31:32"                                   |                
   ------------------------------------------------------------                
   |      Author: Chris J. Pickard, Cambridge University      |                
   ============================================================                
 Warning: otfg_output_psp cannot write out meta-GGA pseudopotentials presently.

 Atomic calculation performed for In:
 1s2 2s2 2p6 3s2 3p6 3d10 4s2 4p6 4d10 5s2 5p1

 Converged in 84 iterations to an ae energy of -160093.327 eV

   ============================================================                
   | Pseudopotential Report - Date of generation 25-03-2024   |                
   ------------------------------------------------------------                
   | Element: In Ionic charge: 13.00 Level of theory: RSCAN   |                
   | Atomic Solver: Koelling-Harmon                           |                
   |                                                          |                
   |               Reference Electronic Structure             |                
   |         Orbital         Occupation         Energy        |                
   |            4d             10.000           -0.711        |                
   |            5s              2.000           -0.313        |                
   |            5p              1.000           -0.095        |                
   |                                                          |                
   |                 Pseudopotential Definition               |                
   |        Beta     l      e      Rc     scheme   norm       |                
   |          1      0   -0.313   2.501     qc      0         |                
   |          2      0    0.250   2.501     qc      0         |                
   |          3      1   -0.095   2.501     qc      0         |                
   |          4      1    0.250   2.501     qc      0         |                
   |          5      2   -0.711   2.207     qc      0         |                
   |          6      2    0.250   2.207     qc      0         |                
   |         loc     3    0.000   2.501     pn      0         |                
   |                                                          |                
   | Augmentation charge Rinner = 1.504                       |                
   | Partial core correction Rc = 1.504                       |                
   ------------------------------------------------------------                
   | "3|2.5|2.5|1.5|7|8|9|50:51:42U2.2U2.2"                   |                
   ------------------------------------------------------------                
   |      Author: Chris J. Pickard, Cambridge University      |                
   ============================================================                
 Warning: otfg_output_psp cannot write out meta-GGA pseudopotentials presently.

 Pseudo atomic calculation performed for P 3s2 3p3

 Converged in 23 iterations to a total energy of -208.0292 eV

 Pseudo atomic calculation performed for In 4d10 5s2 5p1

 Converged in 42 iterations to a total energy of -1747.4500 eV
 Calculation parallelised over 252 processes.
 Data is distributed by G-vector(7-way) and k-point(36-way)
 Each process may use up to 2 threads.

 ************************************ Title ************************************
 

 ***************************** General Parameters ******************************
  
 output verbosity                               : normal  (1)
 write checkpoint data to                       : StackingFaultStructs_(1_1_1)_(1_1_-2)_7.check
 type of calculation                            : geometry optimization
 stress calculation                             : off
 density difference calculation                 : off
 electron localisation func (ELF) calculation   : off
 Hirshfeld analysis                             : on
 polarisation (Berry phase) analysis            : off
 molecular orbital projected DOS                : off
 deltaSCF calculation                           : off
 unlimited duration calculation
 timing information                             : on
 memory usage estimate                          : on
 write extra output files                       : on
 write final potential to formatted file        : off
 write final density to formatted file          : off
 write BibTeX reference list                    : on
 write OTFG pseudopotential files               : on
 write electrostatic potential file             : on
 write bands file                               : on
 checkpoint writing                             : off
  
 output         length unit                     : A
 output           mass unit                     : amu
 output           time unit                     : ps
 output         charge unit                     : e
 output           spin unit                     : hbar/2
 output         energy unit                     : eV
 output          force unit                     : eV/A
 output       velocity unit                     : A/ps
 output       pressure unit                     : GPa
 output     inv_length unit                     : 1/A
 output      frequency unit                     : cm-1
 output force constant unit                     : eV/A**2
 output         volume unit                     : A**3
 output   IR intensity unit                     : (D/A)**2/amu
 output         dipole unit                     : D
 output         efield unit                     : eV/A/e
 output        entropy unit                     : J/mol/K
 output    efield chi2 unit                     : pm/V
  
 wavefunctions paging                           : none
 random number generator seed                   : randomised (145740100)
 data distribution                              : optimal for this architecture
 optimization strategy                          : balance speed and memory

 *********************** Exchange-Correlation Parameters ***********************
  
 using functional                               : RSCAN
 relativistic treatment                         : Koelling-Harmon
 DFT+D: Semi-empirical dispersion correction    : off

 ************************* Pseudopotential Parameters **************************
  
 pseudopotential representation                 : reciprocal space
 <beta|phi> representation                      : reciprocal space
 spin-orbit coupling                            : off

 **************************** Basis Set Parameters *****************************
  
 plane wave basis set cut-off                   :   900.0000   eV
 size of standard grid                          :     2.0000
 size of   fine   gmax                          :    30.7390   1/A
 finite basis set correction                    : none

 **************************** Electronic Parameters ****************************
  
 number of  electrons                           :  432.0    
 net charge of system                           :  0.000    
 treating system as non-spin-polarized
 number of bands                                :        259

 ********************* Electronic Minimization Parameters **********************
  
 Method: Treating system as metallic with density mixing treatment of electrons,
         and number of  SD  steps               :          1
         and number of  CG  steps               :          4
  
 total energy / atom convergence tol.           : 0.1000E-07   eV
 eigen-energy convergence tolerance             : 0.2222E-08   eV
 max force / atom convergence tol.              : ignored
 convergence tolerance window                   :          3   cycles
 max. number of SCF cycles                      :         50
 number of fixed-spin iterations                :         10
 smearing scheme                                : Gaussian
 smearing width                                 : 0.2000       eV
 Fermi energy convergence tolerance             : 0.2721E-13   eV
 periodic dipole correction                     : NONE

 ************************** Density Mixing Parameters **************************
  
 density-mixing scheme                          : Pulay
 max. length of mixing history                  :         15
 charge density mixing amplitude                : 0.5000    
 cut-off energy for mixing                      :  900.0       eV

 *********************** Population Analysis Parameters ************************
  
 Population analysis with cutoff                :  3.000       A
 Population analysis output                     : summary and pdos components

 ********************** Geometry Optimization Parameters ***********************
  
 optimization method                            : LBFGS
 max. no. of LBFGS updates                      : unbounded
 preconditioned LBFGS is activated
 preconditioner type                            : EXP
     stabilization constant                     :     0.1000
     parameter A                                :     3.0000
     nearest neighbor distance                  : automatic
     cut-off distance                           : automatic
     parameter mu                               : automatic
 variable cell method                           : fixed basis quality
 max. number of steps                           :         30
 estimated bulk modulus                         :  500.0       GPa
 estimated <frequency>                          :  1668.       cm-1
 geom line minimiser                            : on
 with line minimiser tolerance                  :     0.4000
 total energy convergence tolerance             : 0.2000E-04   eV/atom
        max ionic |force| tolerance             : 0.1000E-02   eV/A
 max ionic |displacement| tolerance             : 0.1000E-02   A
   max |stress component| tolerance             : 0.1000       GPa
 convergence tolerance window                   :          2   steps
 backup results every                           :          5   steps
 write geom trajectory file                     : on

 *******************************************************************************
  

                           -------------------------------
                                      Unit Cell
                           -------------------------------
        Real Lattice(A)                      Reciprocal Lattice(1/A)
     8.3456610     0.0000000     0.0000000        0.752868503   0.000000000   0.000000000
     0.0000000    14.4551090     0.0000000        0.000000000   0.434668829  -0.248250091
     0.0000000     5.8376400    10.2213060        0.000000000   0.000000000   0.614714529

                       Lattice parameters(A)       Cell Angles
                    a =      8.345661          alpha =   60.268247
                    b =     14.455109          beta  =   90.000000
                    c =     11.770860          gamma =   90.000000

                       Current cell volume =          1233.072183       A**3
                                   density =             2.837630   AMU/A**3
                                           =             4.711995     g/cm^3

                           -------------------------------
                                     Cell Contents
                           -------------------------------
                         Total number of ions in cell =   48
                      Total number of species in cell =    2
                        Max number of any one species =   24

            xxxxxxxxxxxxxxxxxxxxxxxxxxxxxxxxxxxxxxxxxxxxxxxxxxxxxxxxxxxx
            x  Element    Atom        Fractional coordinates of atoms  x
            x            Number           u          v          w      x
            x----------------------------------------------------------x
            x  P            1         0.000000   0.193492   0.758973   x 
            x  P            2         0.000000   0.665247   0.416213   x 
            x  P            3         0.250000   0.443492   0.758973   x 
            x  P            4         0.750000   0.443492   0.758973   x 
            x  P            5         0.250000  -0.056508   0.758973   x 
            x  P            6         0.750000  -0.056508   0.758973   x 
            x  P            7         0.500000   0.133160   0.082970   x 
            x  P            8         0.500000   0.193492   0.758973   x 
            x  P            9         0.000000   0.633160   0.082970   x 
            x  P           10         0.000000   0.133160   0.082970   x 
            x  P           11         0.250000   0.383160   0.082970   x 
            x  P           12         0.000000   0.165247   0.416213   x 
            x  P           13         0.250000  -0.084753   0.416213   x 
            x  P           14         0.000000  -0.306508   0.758973   x 
            x  P           15         0.500000  -0.306508   0.758973   x 
            x  P           16         0.750000   0.383160   0.082970   x 
            x  P           17         0.500000   0.633160   0.082970   x 
            x  P           18         0.750000   0.883160   0.082970   x 
            x  P           19         0.250000   0.883160   0.082970   x 
            x  P           20         0.500000   0.665247   0.416213   x 
            x  P           21         0.500000   0.165247   0.416213   x 
            x  P           22         0.750000   0.415247   0.416213   x 
            x  P           23         0.750000  -0.084753   0.416213   x 
            x  P           24         0.250000   0.415247   0.416213   x 
            x  In           1         0.500000   0.564320   0.666129   x 
            x  In           2         0.750000  -0.185680   0.666129   x 
            x  In           3         0.250000   0.752909  -0.007203   x 
            x  In           4         0.750000   0.752909  -0.007203   x 
            x  In           5         0.250000  -0.185680   0.666129   x 
            x  In           6         0.500000   0.064320   0.666129   x 
            x  In           7         0.500000   0.502909  -0.007203   x 
            x  In           8         0.250000   0.782219   0.332918   x 
            x  In           9         0.500000   0.532219   0.332918   x 
            x  In          10         0.750000   0.252909  -0.007203   x 
            x  In          11         0.750000   0.282219   0.332918   x 
            x  In          12         0.000000   0.032219   0.332918   x 
            x  In          13         0.000000   0.002909  -0.007203   x 
            x  In          14         0.000000   0.532219   0.332918   x 
            x  In          15         0.250000   0.314320   0.666129   x 
            x  In          16         0.000000   0.502909  -0.007203   x 
            x  In          17         0.250000   0.252909  -0.007203   x 
            x  In          18         0.000000   0.564320   0.666129   x 
            x  In          19         0.000000   0.064320   0.666129   x 
            x  In          20         0.750000   0.782219   0.332918   x 
            x  In          21         0.250000   0.282219   0.332918   x 
            x  In          22         0.500000   0.002909  -0.007203   x 
            x  In          23         0.500000   0.032219   0.332918   x 
            x  In          24         0.750000   0.314320   0.666129   x 
            xxxxxxxxxxxxxxxxxxxxxxxxxxxxxxxxxxxxxxxxxxxxxxxxxxxxxxxxxxxx


                         No user defined ionic velocities

                           -------------------------------
                                   Details of Species
                           -------------------------------

                               Mass of species in AMU
                                    P   30.9737600
                                    In  114.8180000

                          Electric Quadrupole Moment (Barn)
                                    P    1.0000000 No Isotope Defined
                                    In    0.7700000 Isotope115

                          Files used for pseudopotentials:
                                    P 3|1.8|4|4|5|30:31:32
                                    In 3|2.5|2.5|1.5|7|8|9|50:51:42U2.2U2.2

                           -------------------------------
                              k-Points For BZ Sampling
                           -------------------------------
                       MP grid size for SCF calculation is  4  4  4
                            with an offset of   0.125  0.125  0.125
                       Number of kpoints used =            36

                           -------------------------------
                               Symmetry and Constraints
                           -------------------------------

                      Cell is a supercell containing 8 primitive cells
                      Maximum deviation from symmetry =  0.00000         ANG

                      Number of symmetry operations   =           1
                      Number of ionic constraints     =          96
                      Point group of crystal =     1: C1, 1, 1
                      Space group of crystal =     8: Cm, C -2y

             Set iprint > 1 for details on symmetry rotations/translations

                         Centre of mass is NOT constrained
             Set iprint > 1 for details of linear ionic constraints

                         Number of cell constraints= 6
                         Cell constraints are:  0 0 0 0 0 0

                         External pressure/stress (GPa)
                          0.00000   0.00000   0.00000
                                    0.00000   0.00000
                                              0.00000
 
+---------------- MEMORY AND SCRATCH DISK ESTIMATES PER PROCESS --------------+
|                                                     Memory          Disk    |
| Baseline code, static data and system overhead      488.0 MB         0.0 MB |
| BLAS internal memory storage                          0.0 MB         0.0 MB |
| Model and support data                             1577.8 MB         0.0 MB |
| Electronic energy minimisation requirements         248.8 MB         0.0 MB |
| Force calculation requirements                       42.9 MB         0.0 MB |
|                                               ----------------------------- |
| Approx. total storage required per process         2314.7 MB         0.0 MB |
|                                                                             |
| Requirements will fluctuate during execution and may exceed these estimates |
+-----------------------------------------------------------------------------+
Calculating approximate eigenstates for fixed initial Hamiltonian
Cut-off for approx. calculation is   89.988 eV
Improving approx. states at cut-off of  450.000 eV
Resetting cut-off to  900.000 eV
Calculating total energy with cut-off of  900.000 eV.
------------------------------------------------------------------------ <-- SCF
SCF loop      Energy           Fermi           Energy gain       Timer   <-- SCF
                               energy          per atom          (sec)   <-- SCF
------------------------------------------------------------------------ <-- SCF
Initial  -4.72880516E+004  0.00000000E+000                        96.59  <-- SCF
      1  -4.70981370E+004  2.67509754E+000  -3.95655458E+000     168.22  <-- SCF
      2  -4.70984279E+004  2.67271752E+000   6.06002647E-003     223.48  <-- SCF
      3  -4.71487987E+004  3.03730234E+000   1.04939209E+000     287.80  <-- SCF
      4  -4.71580367E+004  3.11273531E+000   1.92458705E-001     365.06  <-- SCF
      5  -4.71527554E+004  3.39180566E+000  -1.10026887E-001     429.40  <-- SCF
      6  -4.71529023E+004  3.43471429E+000   3.05881241E-003     493.15  <-- SCF
      7  -4.71526673E+004  3.48414914E+000  -4.89418547E-003     558.91  <-- SCF
      8  -4.71539640E+004  3.52596130E+000   2.70127561E-002     623.03  <-- SCF
      9  -4.71539265E+004  3.48684751E+000  -7.79483427E-004     687.34  <-- SCF
     10  -4.71539442E+004  3.49478942E+000   3.67358439E-004     752.39  <-- SCF
     11  -4.71539447E+004  3.49213406E+000   1.18884009E-005     818.78  <-- SCF
     12  -4.71539453E+004  3.49115351E+000   1.22528378E-005     883.19  <-- SCF
     13  -4.71539453E+004  3.49153272E+000  -2.27474542E-008     941.15  <-- SCF
     14  -4.71539453E+004  3.49154911E+000  -4.37765555E-008     987.44  <-- SCF
     15  -4.71539453E+004  3.49152367E+000   7.29933225E-008    1035.42  <-- SCF
     16  -4.71539453E+004  3.49154109E+000   9.77441252E-010    1080.92  <-- SCF
     17  -4.71539453E+004  3.49151769E+000  -1.79930139E-009    1126.31  <-- SCF
------------------------------------------------------------------------ <-- SCF
 
Final energy, E             =  -47153.93971811     eV
Final free energy (E-TS)    =  -47153.94533328     eV
(energies not corrected for finite basis set)
 
NB est. 0K energy (E-0.5TS)      =  -47153.94252570     eV
 
 
+---------------- MEMORY AND SCRATCH DISK ESTIMATES PER PROCESS --------------+
|                                                     Memory          Disk    |
| Model and support data                              993.7 MB         0.0 MB |
| Electronic energy minimisation requirements         248.8 MB         0.0 MB |
| Geometry minimisation requirements                  296.1 MB         0.0 MB |
|                                               ----------------------------- |
| Approx. total storage required per process         1538.7 MB         0.0 MB |
|                                                                             |
| Requirements will fluctuate during execution and may exceed these estimates |
+-----------------------------------------------------------------------------+
 

 ******************************** Constrained Forces ********************************
 *                                                                                  *
 *                           Cartesian components (eV/A)                            *
 * -------------------------------------------------------------------------------- *
 *                         x                    y                    z              *
 *                                                                                  *
 * P               1      0.00000(cons'd)      0.00000(cons'd)     -0.00482         *
 * P               2      0.00000(cons'd)     -0.00000(cons'd)     -0.01528         *
 * P               3      0.00000(cons'd)      0.00000(cons'd)     -0.00372         *
 * P               4      0.00000(cons'd)     -0.00000(cons'd)     -0.00372         *
 * P               5      0.00000(cons'd)      0.00000(cons'd)     -0.00372         *
 * P               6     -0.00000(cons'd)     -0.00000(cons'd)     -0.00372         *
 * P               7     -0.00000(cons'd)      0.00000(cons'd)     -0.10243         *
 * P               8      0.00000(cons'd)     -0.00000(cons'd)     -0.00482         *
 * P               9      0.00000(cons'd)      0.00000(cons'd)     -0.10243         *
 * P              10      0.00000(cons'd)      0.00000(cons'd)     -0.10243         *
 * P              11      0.00000(cons'd)      0.00000(cons'd)     -0.10206         *
 * P              12      0.00000(cons'd)      0.00000(cons'd)     -0.01528         *
 * P              13      0.00000(cons'd)      0.00000(cons'd)     -0.01549         *
 * P              14      0.00000(cons'd)     -0.00000(cons'd)     -0.00482         *
 * P              15     -0.00000(cons'd)     -0.00000(cons'd)     -0.00482         *
 * P              16      0.00000(cons'd)      0.00000(cons'd)     -0.10206         *
 * P              17      0.00000(cons'd)      0.00000(cons'd)     -0.10243         *
 * P              18     -0.00000(cons'd)      0.00000(cons'd)     -0.10206         *
 * P              19      0.00000(cons'd)      0.00000(cons'd)     -0.10206         *
 * P              20      0.00000(cons'd)      0.00000(cons'd)     -0.01529         *
 * P              21     -0.00000(cons'd)      0.00000(cons'd)     -0.01528         *
 * P              22      0.00000(cons'd)     -0.00000(cons'd)     -0.01549         *
 * P              23      0.00000(cons'd)     -0.00000(cons'd)     -0.01549         *
 * P              24      0.00000(cons'd)      0.00000(cons'd)     -0.01549         *
 * In              1      0.00000(cons'd)      0.00000(cons'd)     -0.01245         *
 * In              2      0.00000(cons'd)     -0.00000(cons'd)     -0.01246         *
 * In              3      0.00000(cons'd)      0.00000(cons'd)      0.06908         *
 * In              4      0.00000(cons'd)      0.00000(cons'd)      0.06908         *
 * In              5     -0.00000(cons'd)      0.00000(cons'd)     -0.01246         *
 * In              6      0.00000(cons'd)      0.00000(cons'd)     -0.01245         *
 * In              7      0.00000(cons'd)      0.00000(cons'd)      0.06905         *
 * In              8      0.00000(cons'd)     -0.00000(cons'd)      0.06530         *
 * In              9      0.00000(cons'd)      0.00000(cons'd)      0.06530         *
 * In             10      0.00000(cons'd)     -0.00000(cons'd)      0.06908         *
 * In             11      0.00000(cons'd)     -0.00000(cons'd)      0.06530         *
 * In             12      0.00000(cons'd)      0.00000(cons'd)      0.06530         *
 * In             13      0.00000(cons'd)      0.00000(cons'd)      0.06904         *
 * In             14      0.00000(cons'd)      0.00000(cons'd)      0.06530         *
 * In             15      0.00000(cons'd)     -0.00000(cons'd)     -0.01246         *
 * In             16      0.00000(cons'd)     -0.00000(cons'd)      0.06904         *
 * In             17      0.00000(cons'd)      0.00000(cons'd)      0.06908         *
 * In             18      0.00000(cons'd)     -0.00000(cons'd)     -0.01245         *
 * In             19      0.00000(cons'd)      0.00000(cons'd)     -0.01245         *
 * In             20      0.00000(cons'd)      0.00000(cons'd)      0.06530         *
 * In             21      0.00000(cons'd)      0.00000(cons'd)      0.06530         *
 * In             22      0.00000(cons'd)      0.00000(cons'd)      0.06904         *
 * In             23      0.00000(cons'd)     -0.00000(cons'd)      0.06530         *
 * In             24      0.00000(cons'd)      0.00000(cons'd)     -0.01246         *
 *                                                                                  *
 ************************************************************************************
 EXP precond LBFGS => estimated nearest neighbor distance :  2.589       A
 EXP precond LBFGS => estimated cutoff distance :  5.179       A

 ************************************** Forces **************************************
 *                                                                                  *
 *                           Cartesian components (eV/A)                            *
 * -------------------------------------------------------------------------------- *
 *                         x                    y                    z              *
 *                                                                                  *
 * P               1      0.00000(cons'd)     -0.87351(cons'd)     -0.00482         *
 * P               2     -0.00000(cons'd)     -0.09301(cons'd)     -0.01528         *
 * P               3      0.00000(cons'd)     -0.87657(cons'd)     -0.00372         *
 * P               4      0.00000(cons'd)     -0.87657(cons'd)     -0.00372         *
 * P               5      0.00000(cons'd)     -0.87656(cons'd)     -0.00372         *
 * P               6     -0.00000(cons'd)     -0.87656(cons'd)     -0.00372         *
 * P               7     -0.00000(cons'd)      0.21184(cons'd)     -0.10243         *
 * P               8     -0.00000(cons'd)     -0.87351(cons'd)     -0.00482         *
 * P               9      0.00000(cons'd)      0.21185(cons'd)     -0.10243         *
 * P              10      0.00000(cons'd)      0.21184(cons'd)     -0.10243         *
 * P              11      0.00000(cons'd)      0.21360(cons'd)     -0.10206         *
 * P              12      0.00000(cons'd)     -0.09301(cons'd)     -0.01528         *
 * P              13      0.00000(cons'd)     -0.09603(cons'd)     -0.01549         *
 * P              14      0.00000(cons'd)     -0.87351(cons'd)     -0.00482         *
 * P              15     -0.00000(cons'd)     -0.87351(cons'd)     -0.00482         *
 * P              16     -0.00000(cons'd)      0.21360(cons'd)     -0.10206         *
 * P              17     -0.00000(cons'd)      0.21185(cons'd)     -0.10243         *
 * P              18     -0.00000(cons'd)      0.21359(cons'd)     -0.10206         *
 * P              19      0.00000(cons'd)      0.21360(cons'd)     -0.10206         *
 * P              20     -0.00000(cons'd)     -0.09301(cons'd)     -0.01529         *
 * P              21     -0.00000(cons'd)     -0.09301(cons'd)     -0.01528         *
 * P              22     -0.00000(cons'd)     -0.09604(cons'd)     -0.01549         *
 * P              23      0.00000(cons'd)     -0.09603(cons'd)     -0.01549         *
 * P              24      0.00000(cons'd)     -0.09604(cons'd)     -0.01549         *
 * In              1     -0.00000(cons'd)      0.00420(cons'd)     -0.01245         *
 * In              2     -0.00000(cons'd)      0.00419(cons'd)     -0.01246         *
 * In              3      0.00000(cons'd)      0.59798(cons'd)      0.06908         *
 * In              4     -0.00000(cons'd)      0.59798(cons'd)      0.06908         *
 * In              5      0.00000(cons'd)      0.00419(cons'd)     -0.01246         *
 * In              6     -0.00000(cons'd)      0.00420(cons'd)     -0.01245         *
 * In              7     -0.00000(cons'd)      0.59804(cons'd)      0.06905         *
 * In              8      0.00000(cons'd)      0.15463(cons'd)      0.06530         *
 * In              9     -0.00000(cons'd)      0.15462(cons'd)      0.06530         *
 * In             10     -0.00000(cons'd)      0.59799(cons'd)      0.06908         *
 * In             11     -0.00000(cons'd)      0.15464(cons'd)      0.06530         *
 * In             12     -0.00000(cons'd)      0.15462(cons'd)      0.06530         *
 * In             13     -0.00000(cons'd)      0.59805(cons'd)      0.06904         *
 * In             14      0.00000(cons'd)      0.15462(cons'd)      0.06530         *
 * In             15      0.00000(cons'd)      0.00419(cons'd)     -0.01246         *
 * In             16      0.00000(cons'd)      0.59804(cons'd)      0.06904         *
 * In             17      0.00000(cons'd)      0.59798(cons'd)      0.06908         *
 * In             18      0.00000(cons'd)      0.00421(cons'd)     -0.01245         *
 * In             19      0.00000(cons'd)      0.00420(cons'd)     -0.01245         *
 * In             20     -0.00000(cons'd)      0.15463(cons'd)      0.06530         *
 * In             21      0.00000(cons'd)      0.15464(cons'd)      0.06530         *
 * In             22     -0.00000(cons'd)      0.59805(cons'd)      0.06904         *
 * In             23     -0.00000(cons'd)      0.15462(cons'd)      0.06530         *
 * In             24     -0.00000(cons'd)      0.00419(cons'd)     -0.01246         *
 *                                                                                  *
 ************************************************************************************
 doing test perturbation to get energy scale for EXP preconditioner

                           -------------------------------
                                     Cell Contents
                           -------------------------------

            xxxxxxxxxxxxxxxxxxxxxxxxxxxxxxxxxxxxxxxxxxxxxxxxxxxxxxxxxxxxxxxxx
            x  Element         Atom        Fractional coordinates of atoms  x
            x                 Number           u          v          w      x
            x---------------------------------------------------------------x
            x  P                 1         0.000000   0.193532   0.760850   x
            x  P                 2         0.000000   0.666042   0.417332   x
            x  P                 3         0.251015   0.443877   0.760850   x
            x  P                 4         0.752611   0.443877   0.760850   x
            x  P                 5         0.251015   0.944372   0.760850   x
            x  P                 6         0.752611   0.944372   0.760850   x
            x  P                 7         0.501919   0.133341   0.083200   x
            x  P                 8         0.501919   0.193532   0.760850   x
            x  P                 9         0.000000   0.634101   0.083200   x
            x  P                10         0.000000   0.133341   0.083200   x
            x  P                11         0.251015   0.383739   0.083200   x
            x  P                12         0.000000   0.165338   0.417332   x
            x  P                13         0.251015   0.916303   0.417332   x
            x  P                14         0.000000   0.694162   0.760850   x
            x  P                15         0.501919   0.694162   0.760850   x
            x  P                16         0.752611   0.383739   0.083200   x
            x  P                17         0.501919   0.634101   0.083200   x
            x  P                18         0.752611   0.884408   0.083200   x
            x  P                19         0.251015   0.884408   0.083200   x
            x  P                20         0.501919   0.666042   0.417332   x
            x  P                21         0.501919   0.165338   0.417332   x
            x  P                22         0.752611   0.415714   0.417332   x
            x  P                23         0.752611   0.916303   0.417332   x
            x  P                24         0.251015   0.415714   0.417332   x
            x  In                1         0.501919   0.564882   0.667823   x
            x  In                2         0.752611   0.815143   0.667823   x
            x  In                3         0.251015   0.753568   0.995045   x
            x  In                4         0.752611   0.753568   0.995045   x
            x  In                5         0.251015   0.815143   0.667823   x
            x  In                6         0.501919   0.064178   0.667823   x
            x  In                7         0.501919   0.503328   0.995045   x
            x  In                8         0.251015   0.783194   0.333824   x
            x  In                9         0.501919   0.532887   0.333824   x
            x  In               10         0.752611   0.253018   0.995045   x
            x  In               11         0.752611   0.282525   0.333824   x
            x  In               12         0.000000   0.032128   0.333824   x
            x  In               13         0.000000   0.002654   0.995045   x
            x  In               14         0.000000   0.532887   0.333824   x
            x  In               15         0.251015   0.314554   0.667823   x
            x  In               16         0.000000   0.503328   0.995045   x
            x  In               17         0.251015   0.253018   0.995045   x
            x  In               18         0.000000   0.564882   0.667823   x
            x  In               19         0.000000   0.064178   0.667823   x
            x  In               20         0.752611   0.783194   0.333824   x
            x  In               21         0.251015   0.282525   0.333824   x
            x  In               22         0.501919   0.002654   0.995045   x
            x  In               23         0.501919   0.032128   0.333824   x
            x  In               24         0.752611   0.314554   0.667823   x
            xxxxxxxxxxxxxxxxxxxxxxxxxxxxxxxxxxxxxxxxxxxxxxxxxxxxxxxxxxxxxxxxx


------------------------------------------------------------------------ <-- SCF
SCF loop      Energy           Fermi           Energy gain       Timer   <-- SCF
                               energy          per atom          (sec)   <-- SCF
------------------------------------------------------------------------ <-- SCF
Initial  -4.71510729E+004  0.00000000E+000                      1191.52  <-- SCF
      1  -4.71535695E+004  3.50357182E+000   5.20135456E-002    1257.42  <-- SCF
      2  -4.71538983E+004  3.50346838E+000   6.84894651E-003    1335.95  <-- SCF
      3  -4.71539018E+004  3.50377811E+000   7.42404343E-005    1401.85  <-- SCF
      4  -4.71539037E+004  3.50361295E+000   3.89549515E-005    1470.97  <-- SCF
      5  -4.71539040E+004  3.50347528E+000   6.84379964E-006    1542.36  <-- SCF
      6  -4.71539041E+004  3.50343105E+000   8.07848170E-007    1609.65  <-- SCF
      7  -4.71539041E+004  3.50346995E+000  -3.76062884E-008    1668.78  <-- SCF
      8  -4.71539041E+004  3.50348092E+000  -2.70892887E-008    1722.44  <-- SCF
      9  -4.71539041E+004  3.50348522E+000  -6.64345538E-010    1768.97  <-- SCF
     10  -4.71539041E+004  3.50348626E+000   5.33126338E-010    1814.29  <-- SCF
     11  -4.71539041E+004  3.50348718E+000   3.94044297E-010    1859.58  <-- SCF
------------------------------------------------------------------------ <-- SCF
 
Final energy, E             =  -47153.89844646     eV
Final free energy (E-TS)    =  -47153.90406686     eV
(energies not corrected for finite basis set)
 
NB est. 0K energy (E-0.5TS)      =  -47153.90125666     eV
 

 ************************************** Forces **************************************
 *                                                                                  *
 *                           Cartesian components (eV/A)                            *
 * -------------------------------------------------------------------------------- *
 *                         x                    y                    z              *
 *                                                                                  *
 * P               1      0.12147(cons'd)     -0.90445(cons'd)     -0.01972         *
 * P               2      0.13998(cons'd)     -0.12428(cons'd)      0.00808         *
 * P               3      0.01140(cons'd)     -0.85617(cons'd)     -0.05697         *
 * P               4     -0.10544(cons'd)     -0.91245(cons'd)     -0.01559         *
 * P               5      0.01133(cons'd)     -0.90984(cons'd)     -0.02057         *
 * P               6     -0.10877(cons'd)     -0.96848(cons'd)      0.02292         *
 * P               7     -0.02615(cons'd)      0.31261(cons'd)      0.00569         *
 * P               8     -0.02573(cons'd)     -0.85743(cons'd)     -0.05469         *
 * P               9      0.13098(cons'd)      0.23188(cons'd)      0.03644         *
 * P              10      0.13048(cons'd)      0.26289(cons'd)      0.03641         *
 * P              11      0.01045(cons'd)      0.30283(cons'd)      0.00339         *
 * P              12      0.14010(cons'd)     -0.11918(cons'd)      0.00963         *
 * P              13      0.00971(cons'd)     -0.13674(cons'd)      0.00823         *
 * P              14      0.12140(cons'd)     -0.90683(cons'd)     -0.02232         *
 * P              15     -0.02596(cons'd)     -0.85934(cons'd)     -0.05735         *
 * P              16     -0.11292(cons'd)      0.24273(cons'd)      0.04018         *
 * P              17     -0.02520(cons'd)      0.28258(cons'd)      0.00507         *
 * P              18     -0.11836(cons'd)      0.15252(cons'd)      0.06787         *
 * P              19      0.00964(cons'd)      0.21529(cons'd)      0.02840         *
 * P              20     -0.02591(cons'd)     -0.06955(cons'd)     -0.03148         *
 * P              21     -0.02511(cons'd)     -0.06489(cons'd)     -0.02999         *
 * P              22     -0.12229(cons'd)     -0.13167(cons'd)      0.01498         *
 * P              23     -0.12625(cons'd)     -0.20437(cons'd)      0.05762         *
 * P              24      0.00950(cons'd)     -0.06697(cons'd)     -0.03202         *
 * In              1     -0.01367(cons'd)     -0.00922(cons'd)     -0.01058         *
 * In              2     -0.08871(cons'd)      0.01417(cons'd)     -0.03675         *
 * In              3      0.00540(cons'd)      0.52163(cons'd)      0.01037         *
 * In              4     -0.09707(cons'd)      0.56913(cons'd)     -0.02734         *
 * In              5      0.00362(cons'd)     -0.02420(cons'd)     -0.00103         *
 * In              6     -0.01386(cons'd)      0.06032(cons'd)     -0.05124         *
 * In              7     -0.01640(cons'd)      0.52319(cons'd)      0.00413         *
 * In              8      0.00445(cons'd)      0.12202(cons'd)      0.09090         *
 * In              9     -0.01604(cons'd)      0.13561(cons'd)      0.08063         *
 * In             10     -0.09633(cons'd)      0.55983(cons'd)     -0.02894         *
 * In             11     -0.10378(cons'd)      0.18896(cons'd)      0.04943         *
 * In             12      0.11875(cons'd)      0.26789(cons'd)     -0.00067         *
 * In             13      0.11045(cons'd)      0.63986(cons'd)     -0.07493         *
 * In             14      0.11366(cons'd)      0.18231(cons'd)      0.04906         *
 * In             15      0.00359(cons'd)     -0.01110(cons'd)     -0.00517         *
 * In             16      0.10584(cons'd)      0.56330(cons'd)     -0.02751         *
 * In             17      0.00539(cons'd)      0.51253(cons'd)      0.00839         *
 * In             18      0.09682(cons'd)      0.02335(cons'd)     -0.04080         *
 * In             19      0.10058(cons'd)      0.09425(cons'd)     -0.08315         *
 * In             20     -0.10399(cons'd)      0.17721(cons'd)      0.05358         *
 * In             21      0.00441(cons'd)      0.13369(cons'd)      0.08674         *
 * In             22     -0.01663(cons'd)      0.59801(cons'd)     -0.04133         *
 * In             23     -0.01629(cons'd)      0.21929(cons'd)      0.03291         *
 * In             24     -0.08850(cons'd)      0.02730(cons'd)     -0.04092         *
 *                                                                                  *
 ************************************************************************************
 EXP precond LBFGS => estimated parameter mu :  1.446       eV/A**2
 LBFGS: finished iteration     0 with enthalpy= -4.71539453E+004 eV
  
 +-----------+-----------------+-----------------+------------+-----+ <-- LBFGS
 | Parameter |      value      |    tolerance    |    units   | OK? | <-- LBFGS
 +-----------+-----------------+-----------------+------------+-----+ <-- LBFGS
 |  dE/ion   |   0.000000E+000 |   2.000000E-005 |         eV | No  | <-- LBFGS
 |  |F|max   |   9.748366E-001 |   1.000000E-003 |       eV/A | No  | <-- LBFGS
 |  |dR|max  |   3.872510E-015 |   1.000000E-003 |          A | No  | <-- LBFGS
 +-----------+-----------------+-----------------+------------+-----+ <-- LBFGS
  

================================================================================
 Starting LBFGS iteration          1 ...
================================================================================
  
 +------------+-------------+-------------+-----------------+ <-- min LBFGS
 |    Step    |   lambda    |   F.delta'  |    enthalpy     | <-- min LBFGS
 +------------+-------------+-------------+-----------------+ <-- min LBFGS
 |  previous  |    0.000000 |    0.134382 |   -47153.945333 | <-- min LBFGS
 +------------+-------------+-------------+-----------------+ <-- min LBFGS
  

--------------------------------------------------------------------------------
 LBFGS: starting iteration         1 with trial guess (lambda=  1.000000)
--------------------------------------------------------------------------------

                           -------------------------------
                                     Cell Contents
                           -------------------------------

            xxxxxxxxxxxxxxxxxxxxxxxxxxxxxxxxxxxxxxxxxxxxxxxxxxxxxxxxxxxxxxxxx
            x  Element         Atom        Fractional coordinates of atoms  x
            x                 Number           u          v          w      x
            x---------------------------------------------------------------x
            x  P                 1         0.000000   0.193527   0.758885   x
            x  P                 2         0.000000   0.665218   0.416284   x
            x  P                 3         0.250000   0.443523   0.758897   x
            x  P                 4         0.750000   0.443523   0.758897   x
            x  P                 5         0.250000  -0.056477   0.758896   x
            x  P                 6         0.750000  -0.056477   0.758897   x
            x  P                 7         0.500000   0.133503   0.082121   x
            x  P                 8         0.500000   0.193527   0.758885   x
            x  P                 9         0.000000   0.633502   0.082121   x
            x  P                10         0.000000   0.133503   0.082121   x
            x  P                11         0.250000   0.383501   0.082125   x
            x  P                12         0.000000   0.165219   0.416284   x
            x  P                13         0.250000  -0.084780   0.416282   x
            x  P                14         0.000000  -0.306473   0.758885   x
            x  P                15         0.500000  -0.306473   0.758885   x
            x  P                16         0.750000   0.383501   0.082125   x
            x  P                17         0.500000   0.633502   0.082121   x
            x  P                18         0.750000   0.883501   0.082125   x
            x  P                19         0.250000   0.883501   0.082125   x
            x  P                20         0.500000   0.665219   0.416284   x
            x  P                21         0.500000   0.165219   0.416284   x
            x  P                22         0.750000   0.415220   0.416282   x
            x  P                23         0.750000  -0.084780   0.416282   x
            x  P                24         0.250000   0.415220   0.416282   x
            x  In                1         0.500000   0.564365   0.666016   x
            x  In                2         0.750000  -0.185634   0.666014   x
            x  In                3         0.250000   0.752761  -0.006837   x
            x  In                4         0.750000   0.752761  -0.006837   x
            x  In                5         0.250000  -0.185634   0.666014   x
            x  In                6         0.500000   0.064365   0.666016   x
            x  In                7         0.500000   0.502761  -0.006838   x
            x  In                8         0.250000   0.781973   0.333526   x
            x  In                9         0.500000   0.531974   0.333525   x
            x  In               10         0.750000   0.252761  -0.006837   x
            x  In               11         0.750000   0.281973   0.333526   x
            x  In               12         0.000000   0.031974   0.333525   x
            x  In               13         0.000000   0.002761  -0.006838   x
            x  In               14         0.000000   0.531974   0.333525   x
            x  In               15         0.250000   0.314366   0.666014   x
            x  In               16         0.000000   0.502761  -0.006838   x
            x  In               17         0.250000   0.252761  -0.006837   x
            x  In               18         0.000000   0.564365   0.666016   x
            x  In               19         0.000000   0.064365   0.666016   x
            x  In               20         0.750000   0.781974   0.333526   x
            x  In               21         0.250000   0.281973   0.333526   x
            x  In               22         0.500000   0.002761  -0.006838   x
            x  In               23         0.500000   0.031974   0.333525   x
            x  In               24         0.750000   0.314366   0.666014   x
            xxxxxxxxxxxxxxxxxxxxxxxxxxxxxxxxxxxxxxxxxxxxxxxxxxxxxxxxxxxxxxxxx


------------------------------------------------------------------------ <-- SCF
SCF loop      Energy           Fermi           Energy gain       Timer   <-- SCF
                               energy          per atom          (sec)   <-- SCF
------------------------------------------------------------------------ <-- SCF
Initial  -4.71512422E+004  0.00000000E+000                      1899.26  <-- SCF
      1  -4.71536420E+004  3.50113944E+000   4.99968331E-002    1965.23  <-- SCF
      2  -4.71539437E+004  3.50103046E+000   6.28461739E-003    2043.41  <-- SCF
      3  -4.71539474E+004  3.50154656E+000   7.64680460E-005    2109.59  <-- SCF
      4  -4.71539494E+004  3.50246357E+000   4.19498889E-005    2177.84  <-- SCF
      5  -4.71539497E+004  3.50282755E+000   5.94031845E-006    2251.27  <-- SCF
      6  -4.71539497E+004  3.50295648E+000   6.09115918E-007    2318.92  <-- SCF
      7  -4.71539497E+004  3.50301923E+000   7.30470734E-010    2378.62  <-- SCF
      8  -4.71539497E+004  3.50305339E+000  -2.82448684E-008    2432.99  <-- SCF
      9  -4.71539497E+004  3.50305711E+000   3.02783793E-010    2478.65  <-- SCF
     10  -4.71539497E+004  3.50306158E+000  -2.50064095E-011    2525.12  <-- SCF
     11  -4.71539497E+004  3.50306115E+000   3.53827804E-010    2570.47  <-- SCF
------------------------------------------------------------------------ <-- SCF
 
Final energy, E             =  -47153.94414880     eV
Final free energy (E-TS)    =  -47153.94970617     eV
(energies not corrected for finite basis set)
 
NB est. 0K energy (E-0.5TS)      =  -47153.94692748     eV
 

 ******************************** Constrained Forces ********************************
 *                                                                                  *
 *                           Cartesian components (eV/A)                            *
 * -------------------------------------------------------------------------------- *
 *                         x                    y                    z              *
 *                                                                                  *
 * P               1      0.00000(cons'd)     -0.00000(cons'd)     -0.01326         *
 * P               2      0.00000(cons'd)     -0.00000(cons'd)     -0.02299         *
 * P               3      0.00000(cons'd)      0.00000(cons'd)     -0.01280         *
 * P               4      0.00000(cons'd)      0.00000(cons'd)     -0.01280         *
 * P               5      0.00000(cons'd)     -0.00000(cons'd)     -0.01279         *
 * P               6      0.00000(cons'd)      0.00000(cons'd)     -0.01279         *
 * P               7      0.00000(cons'd)      0.00000(cons'd)      0.03266         *
 * P               8      0.00000(cons'd)      0.00000(cons'd)     -0.01326         *
 * P               9      0.00000(cons'd)      0.00000(cons'd)      0.03264         *
 * P              10      0.00000(cons'd)      0.00000(cons'd)      0.03266         *
 * P              11      0.00000(cons'd)      0.00000(cons'd)      0.03177         *
 * P              12      0.00000(cons'd)      0.00000(cons'd)     -0.02297         *
 * P              13      0.00000(cons'd)      0.00000(cons'd)     -0.02302         *
 * P              14      0.00000(cons'd)     -0.00000(cons'd)     -0.01327         *
 * P              15      0.00000(cons'd)      0.00000(cons'd)     -0.01327         *
 * P              16      0.00000(cons'd)      0.00000(cons'd)      0.03176         *
 * P              17      0.00000(cons'd)      0.00000(cons'd)      0.03265         *
 * P              18      0.00000(cons'd)      0.00000(cons'd)      0.03178         *
 * P              19      0.00000(cons'd)      0.00000(cons'd)      0.03178         *
 * P              20      0.00000(cons'd)      0.00000(cons'd)     -0.02299         *
 * P              21      0.00000(cons'd)     -0.00000(cons'd)     -0.02297         *
 * P              22      0.00000(cons'd)     -0.00000(cons'd)     -0.02305         *
 * P              23      0.00000(cons'd)      0.00000(cons'd)     -0.02303         *
 * P              24      0.00000(cons'd)     -0.00000(cons'd)     -0.02304         *
 * In              1      0.00000(cons'd)      0.00000(cons'd)      0.01871         *
 * In              2      0.00000(cons'd)      0.00000(cons'd)      0.01861         *
 * In              3      0.00000(cons'd)     -0.00000(cons'd)      0.02014         *
 * In              4      0.00000(cons'd)      0.00000(cons'd)      0.02016         *
 * In              5      0.00000(cons'd)      0.00000(cons'd)      0.01860         *
 * In              6      0.00000(cons'd)      0.00000(cons'd)      0.01869         *
 * In              7      0.00000(cons'd)      0.00000(cons'd)      0.02005         *
 * In              8      0.00000(cons'd)      0.00000(cons'd)     -0.03485         *
 * In              9      0.00000(cons'd)      0.00000(cons'd)     -0.03503         *
 * In             10      0.00000(cons'd)      0.00000(cons'd)      0.02016         *
 * In             11      0.00000(cons'd)      0.00000(cons'd)     -0.03484         *
 * In             12      0.00000(cons'd)      0.00000(cons'd)     -0.03502         *
 * In             13      0.00000(cons'd)      0.00000(cons'd)      0.02005         *
 * In             14      0.00000(cons'd)      0.00000(cons'd)     -0.03502         *
 * In             15      0.00000(cons'd)     -0.00000(cons'd)      0.01861         *
 * In             16      0.00000(cons'd)      0.00000(cons'd)      0.02006         *
 * In             17      0.00000(cons'd)      0.00000(cons'd)      0.02014         *
 * In             18      0.00000(cons'd)      0.00000(cons'd)      0.01872         *
 * In             19      0.00000(cons'd)      0.00000(cons'd)      0.01870         *
 * In             20      0.00000(cons'd)      0.00000(cons'd)     -0.03484         *
 * In             21      0.00000(cons'd)     -0.00000(cons'd)     -0.03486         *
 * In             22      0.00000(cons'd)      0.00000(cons'd)      0.02004         *
 * In             23      0.00000(cons'd)      0.00000(cons'd)     -0.03503         *
 * In             24      0.00000(cons'd)     -0.00000(cons'd)      0.01862         *
 *                                                                                  *
 ************************************************************************************
  
 +------------+-------------+-------------+-----------------+ <-- min LBFGS
 |    Step    |   lambda    |   F.delta'  |    enthalpy     | <-- min LBFGS
 +------------+-------------+-------------+-----------------+ <-- min LBFGS
 |  previous  |    0.000000 |    0.134382 |   -47153.945333 | <-- min LBFGS
 | trial step |    1.000000 |   -0.038721 |   -47153.949706 | <-- min LBFGS
 +------------+-------------+-------------+-----------------+ <-- min LBFGS
  
 LBFGS: finished iteration     1 with enthalpy= -4.71539497E+004 eV
  
 +-----------+-----------------+-----------------+------------+-----+ <-- LBFGS
 | Parameter |      value      |    tolerance    |    units   | OK? | <-- LBFGS
 +-----------+-----------------+-----------------+------------+-----+ <-- LBFGS
 |  dE/ion   |   9.110169E-005 |   2.000000E-005 |         eV | No  | <-- LBFGS
 |  |F|max   |   3.503060E-002 |   1.000000E-003 |       eV/A | No  | <-- LBFGS
 |  |dR|max  |   8.677713E-003 |   1.000000E-003 |          A | No  | <-- LBFGS
 +-----------+-----------------+-----------------+------------+-----+ <-- LBFGS
  

================================================================================
 Starting LBFGS iteration          2 ...
================================================================================
  
 +------------+-------------+-------------+-----------------+ <-- min LBFGS
 |    Step    |   lambda    |   F.delta'  |    enthalpy     | <-- min LBFGS
 +------------+-------------+-------------+-----------------+ <-- min LBFGS
 |  previous  |    0.000000 |    0.052734 |   -47153.949706 | <-- min LBFGS
 +------------+-------------+-------------+-----------------+ <-- min LBFGS
  

--------------------------------------------------------------------------------
 LBFGS: starting iteration         2 with trial guess (lambda=  1.000000)
--------------------------------------------------------------------------------

                           -------------------------------
                                     Cell Contents
                           -------------------------------

            xxxxxxxxxxxxxxxxxxxxxxxxxxxxxxxxxxxxxxxxxxxxxxxxxxxxxxxxxxxxxxxxx
            x  Element         Atom        Fractional coordinates of atoms  x
            x                 Number           u          v          w      x
            x---------------------------------------------------------------x
            x  P                 1         0.000000   0.193535   0.758866   x
            x  P                 2         0.000000   0.665363   0.415925   x
            x  P                 3         0.250000   0.443528   0.758883   x
            x  P                 4         0.750000   0.443528   0.758883   x
            x  P                 5         0.250000  -0.056472   0.758883   x
            x  P                 6         0.750000  -0.056472   0.758883   x
            x  P                 7         0.500000   0.133416   0.082334   x
            x  P                 8         0.500000   0.193535   0.758866   x
            x  P                 9         0.000000   0.633416   0.082334   x
            x  P                10         0.000000   0.133416   0.082334   x
            x  P                11         0.250000   0.383417   0.082332   x
            x  P                12         0.000000   0.165363   0.415926   x
            x  P                13         0.250000  -0.084635   0.415922   x
            x  P                14         0.000000  -0.306465   0.758866   x
            x  P                15         0.500000  -0.306465   0.758866   x
            x  P                16         0.750000   0.383417   0.082332   x
            x  P                17         0.500000   0.633416   0.082334   x
            x  P                18         0.750000   0.883417   0.082332   x
            x  P                19         0.250000   0.883417   0.082332   x
            x  P                20         0.500000   0.665363   0.415925   x
            x  P                21         0.500000   0.165363   0.415926   x
            x  P                22         0.750000   0.415365   0.415922   x
            x  P                23         0.750000  -0.084635   0.415922   x
            x  P                24         0.250000   0.415365   0.415922   x
            x  In                1         0.500000   0.564338   0.666083   x
            x  In                2         0.750000  -0.185661   0.666080   x
            x  In                3         0.250000   0.752599  -0.006435   x
            x  In                4         0.750000   0.752599  -0.006435   x
            x  In                5         0.250000  -0.185660   0.666080   x
            x  In                6         0.500000   0.064338   0.666083   x
            x  In                7         0.500000   0.502600  -0.006437   x
            x  In                8         0.250000   0.782095   0.333224   x
            x  In                9         0.500000   0.532096   0.333223   x
            x  In               10         0.750000   0.252599  -0.006435   x
            x  In               11         0.750000   0.282095   0.333224   x
            x  In               12         0.000000   0.032096   0.333223   x
            x  In               13         0.000000   0.002600  -0.006437   x
            x  In               14         0.000000   0.532096   0.333223   x
            x  In               15         0.250000   0.314340   0.666080   x
            x  In               16         0.000000   0.502600  -0.006437   x
            x  In               17         0.250000   0.252599  -0.006435   x
            x  In               18         0.000000   0.564338   0.666083   x
            x  In               19         0.000000   0.064338   0.666083   x
            x  In               20         0.750000   0.782095   0.333224   x
            x  In               21         0.250000   0.282095   0.333224   x
            x  In               22         0.500000   0.002600  -0.006437   x
            x  In               23         0.500000   0.032096   0.333223   x
            x  In               24         0.750000   0.314339   0.666080   x
            xxxxxxxxxxxxxxxxxxxxxxxxxxxxxxxxxxxxxxxxxxxxxxxxxxxxxxxxxxxxxxxxx


------------------------------------------------------------------------ <-- SCF
SCF loop      Energy           Fermi           Energy gain       Timer   <-- SCF
                               energy          per atom          (sec)   <-- SCF
------------------------------------------------------------------------ <-- SCF
Initial  -4.71539804E+004  0.00000000E+000                      2610.20  <-- SCF
      1  -4.71539471E+004  3.50206065E+000  -6.93280829E-004    2676.17  <-- SCF
      2  -4.71539511E+004  3.50205953E+000   8.38539951E-005    2754.62  <-- SCF
      3  -4.71539511E+004  3.50212052E+000  -4.05831597E-007    2820.73  <-- SCF
      4  -4.71539511E+004  3.50209636E+000  -1.38544918E-007    2888.83  <-- SCF
      5  -4.71539511E+004  3.50204366E+000  -6.53273112E-008    2947.98  <-- SCF
      6  -4.71539511E+004  3.50200650E+000  -4.27405941E-008    3002.21  <-- SCF
      7  -4.71539511E+004  3.50199851E+000  -7.03118362E-009    3049.95  <-- SCF
      8  -4.71539511E+004  3.50199120E+000  -1.12619072E-009    3095.86  <-- SCF
------------------------------------------------------------------------ <-- SCF
 
Final energy, E             =  -47153.94552757     eV
Final free energy (E-TS)    =  -47153.95107415     eV
(energies not corrected for finite basis set)
 
NB est. 0K energy (E-0.5TS)      =  -47153.94830086     eV
 

 ******************************** Constrained Forces ********************************
 *                                                                                  *
 *                           Cartesian components (eV/A)                            *
 * -------------------------------------------------------------------------------- *
 *                         x                    y                    z              *
 *                                                                                  *
 * P               1      0.00000(cons'd)     -0.00000(cons'd)     -0.00427         *
 * P               2      0.00000(cons'd)     -0.00000(cons'd)      0.00689         *
 * P               3      0.00000(cons'd)      0.00000(cons'd)     -0.00414         *
 * P               4      0.00000(cons'd)      0.00000(cons'd)     -0.00414         *
 * P               5      0.00000(cons'd)     -0.00000(cons'd)     -0.00415         *
 * P               6     -0.00000(cons'd)      0.00000(cons'd)     -0.00414         *
 * P               7      0.00000(cons'd)      0.00000(cons'd)      0.00281         *
 * P               8     -0.00000(cons'd)      0.00000(cons'd)     -0.00427         *
 * P               9      0.00000(cons'd)      0.00000(cons'd)      0.00282         *
 * P              10      0.00000(cons'd)      0.00000(cons'd)      0.00282         *
 * P              11      0.00000(cons'd)      0.00000(cons'd)      0.00287         *
 * P              12      0.00000(cons'd)     -0.00000(cons'd)      0.00688         *
 * P              13      0.00000(cons'd)      0.00000(cons'd)      0.00671         *
 * P              14      0.00000(cons'd)      0.00000(cons'd)     -0.00427         *
 * P              15     -0.00000(cons'd)      0.00000(cons'd)     -0.00427         *
 * P              16      0.00000(cons'd)      0.00000(cons'd)      0.00287         *
 * P              17      0.00000(cons'd)      0.00000(cons'd)      0.00282         *
 * P              18     -0.00000(cons'd)      0.00000(cons'd)      0.00286         *
 * P              19      0.00000(cons'd)      0.00000(cons'd)      0.00286         *
 * P              20     -0.00000(cons'd)     -0.00000(cons'd)      0.00689         *
 * P              21      0.00000(cons'd)     -0.00000(cons'd)      0.00687         *
 * P              22      0.00000(cons'd)     -0.00000(cons'd)      0.00674         *
 * P              23      0.00000(cons'd)     -0.00000(cons'd)      0.00672         *
 * P              24      0.00000(cons'd)     -0.00000(cons'd)      0.00673         *
 * In              1      0.00000(cons'd)     -0.00000(cons'd)     -0.00595         *
 * In              2      0.00000(cons'd)      0.00000(cons'd)     -0.00602         *
 * In              3     -0.00000(cons'd)      0.00000(cons'd)      0.00010         *
 * In              4      0.00000(cons'd)     -0.00000(cons'd)      0.00010         *
 * In              5      0.00000(cons'd)      0.00000(cons'd)     -0.00601         *
 * In              6      0.00000(cons'd)      0.00000(cons'd)     -0.00594         *
 * In              7      0.00000(cons'd)      0.00000(cons'd)     -0.00004         *
 * In              8      0.00000(cons'd)      0.00000(cons'd)      0.00043         *
 * In              9      0.00000(cons'd)     -0.00000(cons'd)      0.00060         *
 * In             10      0.00000(cons'd)     -0.00000(cons'd)      0.00010         *
 * In             11      0.00000(cons'd)      0.00000(cons'd)      0.00042         *
 * In             12      0.00000(cons'd)      0.00000(cons'd)      0.00060         *
 * In             13      0.00000(cons'd)      0.00000(cons'd)     -0.00004         *
 * In             14      0.00000(cons'd)     -0.00000(cons'd)      0.00059         *
 * In             15     -0.00000(cons'd)      0.00000(cons'd)     -0.00603         *
 * In             16     -0.00000(cons'd)      0.00000(cons'd)     -0.00004         *
 * In             17      0.00000(cons'd)      0.00000(cons'd)      0.00011         *
 * In             18      0.00000(cons'd)      0.00000(cons'd)     -0.00596         *
 * In             19      0.00000(cons'd)     -0.00000(cons'd)     -0.00594         *
 * In             20      0.00000(cons'd)     -0.00000(cons'd)      0.00043         *
 * In             21     -0.00000(cons'd)      0.00000(cons'd)      0.00043         *
 * In             22      0.00000(cons'd)      0.00000(cons'd)     -0.00004         *
 * In             23      0.00000(cons'd)      0.00000(cons'd)      0.00061         *
 * In             24      0.00000(cons'd)     -0.00000(cons'd)     -0.00603         *
 *                                                                                  *
 ************************************************************************************
  
 +------------+-------------+-------------+-----------------+ <-- min LBFGS
 |    Step    |   lambda    |   F.delta'  |    enthalpy     | <-- min LBFGS
 +------------+-------------+-------------+-----------------+ <-- min LBFGS
 |  previous  |    0.000000 |    0.052734 |   -47153.949706 | <-- min LBFGS
 | trial step |    1.000000 |   -0.003478 |   -47153.951074 | <-- min LBFGS
 +------------+-------------+-------------+-----------------+ <-- min LBFGS
  
 LBFGS: finished iteration     2 with enthalpy= -4.71539511E+004 eV
  
 +-----------+-----------------+-----------------+------------+-----+ <-- LBFGS
 | Parameter |      value      |    tolerance    |    units   | OK? | <-- LBFGS
 +-----------+-----------------+-----------------+------------+-----+ <-- LBFGS
 |  dE/ion   |   2.849966E-005 |   2.000000E-005 |         eV | No  | <-- LBFGS
 |  |F|max   |   6.894614E-003 |   1.000000E-003 |       eV/A | No  | <-- LBFGS
 |  |dR|max  |   4.114312E-003 |   1.000000E-003 |          A | No  | <-- LBFGS
 +-----------+-----------------+-----------------+------------+-----+ <-- LBFGS
  

================================================================================
 Starting LBFGS iteration          3 ...
================================================================================
  
 +------------+-------------+-------------+-----------------+ <-- min LBFGS
 |    Step    |   lambda    |   F.delta'  |    enthalpy     | <-- min LBFGS
 +------------+-------------+-------------+-----------------+ <-- min LBFGS
 |  previous  |    0.000000 |    0.009667 |   -47153.951074 | <-- min LBFGS
 +------------+-------------+-------------+-----------------+ <-- min LBFGS
  

--------------------------------------------------------------------------------
 LBFGS: starting iteration         3 with trial guess (lambda=  1.000000)
--------------------------------------------------------------------------------

                           -------------------------------
                                     Cell Contents
                           -------------------------------

            xxxxxxxxxxxxxxxxxxxxxxxxxxxxxxxxxxxxxxxxxxxxxxxxxxxxxxxxxxxxxxxxx
            x  Element         Atom        Fractional coordinates of atoms  x
            x                 Number           u          v          w      x
            x---------------------------------------------------------------x
            x  P                 1         0.000000   0.193568   0.758784   x
            x  P                 2         0.000000   0.665337   0.415991   x
            x  P                 3         0.250000   0.443561   0.758802   x
            x  P                 4         0.750000   0.443561   0.758802   x
            x  P                 5         0.250000  -0.056439   0.758802   x
            x  P                 6         0.750000  -0.056439   0.758802   x
            x  P                 7         0.500000   0.133392   0.082393   x
            x  P                 8         0.500000   0.193568   0.758784   x
            x  P                 9         0.000000   0.633392   0.082393   x
            x  P                10         0.000000   0.133392   0.082393   x
            x  P                11         0.250000   0.383393   0.082391   x
            x  P                12         0.000000   0.165337   0.415991   x
            x  P                13         0.250000  -0.084661   0.415986   x
            x  P                14         0.000000  -0.306432   0.758784   x
            x  P                15         0.500000  -0.306432   0.758784   x
            x  P                16         0.750000   0.383393   0.082391   x
            x  P                17         0.500000   0.633392   0.082393   x
            x  P                18         0.750000   0.883393   0.082391   x
            x  P                19         0.250000   0.883393   0.082391   x
            x  P                20         0.500000   0.665337   0.415991   x
            x  P                21         0.500000   0.165337   0.415991   x
            x  P                22         0.750000   0.415339   0.415986   x
            x  P                23         0.750000  -0.084661   0.415986   x
            x  P                24         0.250000   0.415339   0.415986   x
            x  In                1         0.500000   0.564371   0.666001   x
            x  In                2         0.750000  -0.185627   0.665997   x
            x  In                3         0.250000   0.752594  -0.006424   x
            x  In                4         0.750000   0.752594  -0.006424   x
            x  In                5         0.250000  -0.185627   0.665997   x
            x  In                6         0.500000   0.064371   0.666001   x
            x  In                7         0.500000   0.502596  -0.006427   x
            x  In                8         0.250000   0.782084   0.333253   x
            x  In                9         0.500000   0.532084   0.333253   x
            x  In               10         0.750000   0.252594  -0.006424   x
            x  In               11         0.750000   0.282084   0.333253   x
            x  In               12         0.000000   0.032084   0.333253   x
            x  In               13         0.000000   0.002596  -0.006427   x
            x  In               14         0.000000   0.532084   0.333253   x
            x  In               15         0.250000   0.314373   0.665997   x
            x  In               16        -0.000000   0.502596  -0.006427   x
            x  In               17         0.250000   0.252594  -0.006424   x
            x  In               18         0.000000   0.564371   0.666001   x
            x  In               19         0.000000   0.064371   0.666001   x
            x  In               20         0.750000   0.782084   0.333253   x
            x  In               21         0.250000   0.282084   0.333253   x
            x  In               22         0.500000   0.002596  -0.006427   x
            x  In               23         0.500000   0.032084   0.333253   x
            x  In               24         0.750000   0.314373   0.665997   x
            xxxxxxxxxxxxxxxxxxxxxxxxxxxxxxxxxxxxxxxxxxxxxxxxxxxxxxxxxxxxxxxxx


------------------------------------------------------------------------ <-- SCF
SCF loop      Energy           Fermi           Energy gain       Timer   <-- SCF
                               energy          per atom          (sec)   <-- SCF
------------------------------------------------------------------------ <-- SCF
Initial  -4.71539542E+004  0.00000000E+000                      3135.51  <-- SCF
      1  -4.71539510E+004  3.50130733E+000  -6.63635232E-005    3201.54  <-- SCF
      2  -4.71539511E+004  3.50130724E+000   2.60129561E-006    3279.22  <-- SCF
      3  -4.71539511E+004  3.50134687E+000  -3.02149610E-008    3338.13  <-- SCF
      4  -4.71539511E+004  3.50137560E+000  -4.62695914E-009    3392.54  <-- SCF
      5  -4.71539511E+004  3.50138731E+000   7.24670278E-010    3438.14  <-- SCF
------------------------------------------------------------------------ <-- SCF
 
Final energy, E             =  -47153.94556729     eV
Final free energy (E-TS)    =  -47153.95109919     eV
(energies not corrected for finite basis set)
 
NB est. 0K energy (E-0.5TS)      =  -47153.94833324     eV
 

 ******************************** Constrained Forces ********************************
 *                                                                                  *
 *                           Cartesian components (eV/A)                            *
[...]
     In     9      Dzz                  1.997
     In     9      Dzy                  1.998
     In     9      Dzx                  1.998
     In     9      Dxx-yy               1.998
     In     9      Dxy                  1.998
     In     9      S                    1.450
     In     9      Px                   0.480
     In     9      Py                   0.486
     In     9      Pz                   0.487
     In     9      S                   -0.523
     In    10      Dzz                  1.999
     In    10      Dzy                  1.998
     In    10      Dzx                  1.999
     In    10      Dxx-yy               1.998
     In    10      Dxy                  1.998
     In    10      S                    1.401
     In    10      Px                   0.479
     In    10      Py                   0.481
     In    10      Pz                   0.418
     In    10      S                   -0.474
     In    11      Dzz                  1.997
     In    11      Dzy                  1.998
     In    11      Dzx                  1.998
     In    11      Dxx-yy               1.998
     In    11      Dxy                  1.998
     In    11      S                    1.450
     In    11      Px                   0.480
     In    11      Py                   0.486
     In    11      Pz                   0.487
     In    11      S                   -0.523
     In    12      Dzz                  1.997
     In    12      Dzy                  1.998
     In    12      Dzx                  1.998
     In    12      Dxx-yy               1.998
     In    12      Dxy                  1.998
     In    12      S                    1.450
     In    12      Px                   0.480
     In    12      Py                   0.486
     In    12      Pz                   0.487
     In    12      S                   -0.523
     In    13      Dzz                  1.999
     In    13      Dzy                  1.998
     In    13      Dzx                  1.999
     In    13      Dxx-yy               1.998
     In    13      Dxy                  1.998
     In    13      S                    1.401
     In    13      Px                   0.479
     In    13      Py                   0.481
     In    13      Pz                   0.418
     In    13      S                   -0.474
     In    14      Dzz                  1.997
     In    14      Dzy                  1.998
     In    14      Dzx                  1.998
     In    14      Dxx-yy               1.998
     In    14      Dxy                  1.998
     In    14      S                    1.450
     In    14      Px                   0.480
     In    14      Py                   0.486
     In    14      Pz                   0.487
     In    14      S                   -0.523
     In    15      Dzz                  1.997
     In    15      Dzy                  1.999
     In    15      Dzx                  1.999
     In    15      Dxx-yy               1.998
     In    15      Dxy                  1.998
     In    15      S                    1.395
     In    15      Px                   0.458
     In    15      Py                   0.502
     In    15      Pz                   0.510
     In    15      S                   -0.468
     In    16      Dzz                  1.999
     In    16      Dzy                  1.998
     In    16      Dzx                  1.999
     In    16      Dxx-yy               1.998
     In    16      Dxy                  1.998
     In    16      S                    1.401
     In    16      Px                   0.479
     In    16      Py                   0.481
     In    16      Pz                   0.418
     In    16      S                   -0.474
     In    17      Dzz                  1.999
     In    17      Dzy                  1.998
     In    17      Dzx                  1.999
     In    17      Dxx-yy               1.998
     In    17      Dxy                  1.998
     In    17      S                    1.401
     In    17      Px                   0.479
     In    17      Py                   0.481
     In    17      Pz                   0.418
     In    17      S                   -0.474
     In    18      Dzz                  1.997
     In    18      Dzy                  1.999
     In    18      Dzx                  1.999
     In    18      Dxx-yy               1.998
     In    18      Dxy                  1.998
     In    18      S                    1.395
     In    18      Px                   0.458
     In    18      Py                   0.502
     In    18      Pz                   0.510
     In    18      S                   -0.468
     In    19      Dzz                  1.997
     In    19      Dzy                  1.999
     In    19      Dzx                  1.999
     In    19      Dxx-yy               1.998
     In    19      Dxy                  1.998
     In    19      S                    1.395
     In    19      Px                   0.458
     In    19      Py                   0.502
     In    19      Pz                   0.510
     In    19      S                   -0.468
     In    20      Dzz                  1.997
     In    20      Dzy                  1.998
     In    20      Dzx                  1.998
     In    20      Dxx-yy               1.998
     In    20      Dxy                  1.998
     In    20      S                    1.450
     In    20      Px                   0.480
     In    20      Py                   0.486
     In    20      Pz                   0.487
     In    20      S                   -0.523
     In    21      Dzz                  1.997
     In    21      Dzy                  1.998
     In    21      Dzx                  1.998
     In    21      Dxx-yy               1.998
     In    21      Dxy                  1.998
     In    21      S                    1.450
     In    21      Px                   0.480
     In    21      Py                   0.486
     In    21      Pz                   0.487
     In    21      S                   -0.523
     In    22      Dzz                  1.999
     In    22      Dzy                  1.998
     In    22      Dzx                  1.999
     In    22      Dxx-yy               1.998
     In    22      Dxy                  1.998
     In    22      S                    1.401
     In    22      Px                   0.479
     In    22      Py                   0.481
     In    22      Pz                   0.418
     In    22      S                   -0.474
     In    23      Dzz                  1.997
     In    23      Dzy                  1.998
     In    23      Dzx                  1.998
     In    23      Dxx-yy               1.998
     In    23      Dxy                  1.998
     In    23      S                    1.450
     In    23      Px                   0.480
     In    23      Py                   0.486
     In    23      Pz                   0.487
     In    23      S                   -0.523
     In    24      Dzz                  1.997
     In    24      Dzy                  1.999
     In    24      Dzx                  1.999
     In    24      Dxx-yy               1.998
     In    24      Dxy                  1.998
     In    24      S                    1.395
     In    24      Px                   0.458
     In    24      Py                   0.502
     In    24      Pz                   0.510
     In    24      S                   -0.468
  -------------------------------------------
                           Total:     432.000
  -------------------------------------------

     Atomic Populations (Mulliken)
     -----------------------------
Species          Ion     s       p       d       f      Total   Charge (e)
==========================================================================
  P               1     1.762   3.895   0.000   0.000   5.656    -0.656
  P               2     1.737   3.927   0.000   0.000   5.664    -0.664
  P               3     1.762   3.894   0.000   0.000   5.656    -0.656
  P               4     1.762   3.894   0.000   0.000   5.656    -0.656
  P               5     1.762   3.894   0.000   0.000   5.656    -0.656
  P               6     1.762   3.894   0.000   0.000   5.656    -0.656
  P               7     1.750   3.878   0.000   0.000   5.628    -0.628
  P               8     1.762   3.895   0.000   0.000   5.656    -0.656
  P               9     1.750   3.878   0.000   0.000   5.628    -0.628
  P              10     1.750   3.878   0.000   0.000   5.628    -0.628
  P              11     1.750   3.878   0.000   0.000   5.628    -0.628
  P              12     1.737   3.927   0.000   0.000   5.664    -0.664
  P              13     1.737   3.927   0.000   0.000   5.664    -0.664
  P              14     1.762   3.895   0.000   0.000   5.656    -0.656
  P              15     1.762   3.895   0.000   0.000   5.656    -0.656
  P              16     1.750   3.878   0.000   0.000   5.628    -0.628
  P              17     1.750   3.878   0.000   0.000   5.628    -0.628
  P              18     1.750   3.878   0.000   0.000   5.628    -0.628
  P              19     1.750   3.878   0.000   0.000   5.628    -0.628
  P              20     1.737   3.927   0.000   0.000   5.664    -0.664
  P              21     1.737   3.927   0.000   0.000   5.664    -0.664
  P              22     1.737   3.927   0.000   0.000   5.664    -0.664
  P              23     1.737   3.927   0.000   0.000   5.664    -0.664
  P              24     1.737   3.927   0.000   0.000   5.664    -0.664
  In              1     0.927   1.470   9.990   0.000  12.387     0.613
  In              2     0.927   1.470   9.990   0.000  12.387     0.613
  In              3     0.926   1.378   9.991   0.000  12.295     0.705
  In              4     0.926   1.378   9.991   0.000  12.295     0.705
  In              5     0.927   1.470   9.990   0.000  12.387     0.613
  In              6     0.927   1.470   9.990   0.000  12.387     0.613
  In              7     0.926   1.378   9.991   0.000  12.295     0.705
  In              8     0.927   1.453   9.989   0.000  12.368     0.632
  In              9     0.927   1.453   9.989   0.000  12.368     0.632
  In             10     0.926   1.378   9.991   0.000  12.295     0.705
  In             11     0.927   1.453   9.989   0.000  12.368     0.632
  In             12     0.927   1.453   9.989   0.000  12.368     0.632
  In             13     0.926   1.378   9.991   0.000  12.295     0.705
  In             14     0.927   1.453   9.989   0.000  12.368     0.632
  In             15     0.927   1.470   9.990   0.000  12.387     0.613
  In             16     0.926   1.378   9.991   0.000  12.295     0.705
  In             17     0.926   1.378   9.991   0.000  12.295     0.705
  In             18     0.927   1.470   9.990   0.000  12.387     0.613
  In             19     0.927   1.470   9.990   0.000  12.387     0.613
  In             20     0.927   1.453   9.989   0.000  12.368     0.632
  In             21     0.927   1.453   9.989   0.000  12.368     0.632
  In             22     0.926   1.378   9.991   0.000  12.295     0.705
  In             23     0.927   1.453   9.989   0.000  12.368     0.632
  In             24     0.927   1.470   9.990   0.000  12.387     0.613
==========================================================================

                 Bond                   Population      Length (A)
======================================================================
              P 13 -- In 8                   0.61        2.55323
              P 24 -- In 14                  0.67        2.55323
              P 23 -- In 20                  0.61        2.55323
              P 22 -- In 14                  0.67        2.55323
              P 22 -- In 9                   0.67        2.55323
              P 13 -- In 12                  0.67        2.55323
              P 23 -- In 12                  0.67        2.55323
              P 23 -- In 23                  0.67        2.55323
              P 24 -- In 9                   0.67        2.55323
              P 24 -- In 21                  0.61        2.55323
              P 22 -- In 11                  0.61        2.55323
              P 13 -- In 23                  0.67        2.55323
              P 21 -- In 11                  0.67        2.55325
              P 21 -- In 23                  0.61        2.55325
              P 20 -- In 20                  0.67        2.55325
              P 20 -- In 9                   0.61        2.55325
              P 12 -- In 12                  0.61        2.55325
              P 2  -- In 14                  0.61        2.55325
              P 12 -- In 11                  0.67        2.55325
              P 2  -- In 20                  0.67        2.55325
              P 12 -- In 21                  0.67        2.55325
              P 2  -- In 8                   0.67        2.55325
              P 21 -- In 21                  0.67        2.55325
              P 20 -- In 8                   0.67        2.55325
              P 2  -- In 18                  0.67        2.55593
              P 20 -- In 1                   0.67        2.55593
              P 12 -- In 19                  0.67        2.55593
              P 21 -- In 6                   0.67        2.55593
              P 22 -- In 24                  0.67        2.55594
              P 23 -- In 2                   0.67        2.55594
              P 24 -- In 15                  0.67        2.55594
              P 13 -- In 5                   0.67        2.55594
              P 9  -- In 14                  0.60        2.56438
              P 17 -- In 9                   0.60        2.56438
              P 10 -- In 12                  0.60        2.56438
              P 7  -- In 23                  0.60        2.56438
              P 18 -- In 20                  0.60        2.56440
              P 16 -- In 11                  0.60        2.56440
              P 19 -- In 8                   0.60        2.56440
              P 11 -- In 21                  0.60        2.56440
              P 16 -- In 10                  0.60        2.57453
              P 18 -- In 4                   0.60        2.57453
              P 11 -- In 17                  0.60        2.57453
              P 19 -- In 3                   0.60        2.57453
              P 7  -- In 10                  0.69        2.57453
              P 10 -- In 10                  0.69        2.57453
              P 17 -- In 4                   0.69        2.57453
              P 9  -- In 4                   0.69        2.57453
              P 10 -- In 17                  0.69        2.57453
              P 9  -- In 3                   0.69        2.57453
              P 7  -- In 17                  0.69        2.57453
              P 17 -- In 3                   0.69        2.57454
              P 19 -- In 13                  0.69        2.57454
              P 18 -- In 13                  0.69        2.57454
              P 18 -- In 22                  0.69        2.57454
              P 11 -- In 16                  0.69        2.57454
              P 16 -- In 16                  0.69        2.57454
              P 16 -- In 7                   0.69        2.57454
              P 19 -- In 22                  0.69        2.57454
              P 11 -- In 7                   0.69        2.57454
              P 17 -- In 7                   0.60        2.57455
              P 9  -- In 16                  0.60        2.57455
              P 7  -- In 22                  0.60        2.57455
              P 10 -- In 13                  0.60        2.57455
              P 8  -- In 6                   0.62        2.58903
              P 1  -- In 19                  0.62        2.58903
              P 15 -- In 1                   0.62        2.58903
              P 14 -- In 18                  0.62        2.58903
              P 15 -- In 2                   0.66        2.58904
              P 14 -- In 2                   0.66        2.58904
              P 14 -- In 5                   0.66        2.58904
              P 8  -- In 24                  0.66        2.58904
              P 1  -- In 24                  0.66        2.58904
              P 1  -- In 15                  0.66        2.58904
              P 15 -- In 5                   0.66        2.58904
              P 8  -- In 15                  0.66        2.58904
              P 3  -- In 18                  0.66        2.58909
              P 4  -- In 18                  0.66        2.58909
              P 4  -- In 1                   0.66        2.58909
              P 5  -- In 19                  0.66        2.58909
              P 6  -- In 19                  0.66        2.58909
              P 6  -- In 6                   0.66        2.58909
              P 3  -- In 1                   0.66        2.58909
              P 5  -- In 6                   0.66        2.58909
              P 3  -- In 15                  0.62        2.58911
              P 5  -- In 5                   0.62        2.58911
              P 6  -- In 2                   0.62        2.58911
              P 4  -- In 24                  0.62        2.58911
              P 5  -- In 3                   0.48        2.77292
              P 6  -- In 4                   0.48        2.77292
              P 3  -- In 17                  0.48        2.77292
              P 4  -- In 10                  0.48        2.77292
              P 15 -- In 7                   0.48        2.77304
              P 14 -- In 16                  0.48        2.77304
              P 8  -- In 22                  0.48        2.77304
              P 1  -- In 13                  0.48        2.77304
======================================================================


     Hirshfeld Analysis
     ------------------
Species   Ion     Hirshfeld Charge (e)
======================================
  P        1                -0.25
  P        2                -0.24
  P        3                -0.25
  P        4                -0.25
  P        5                -0.25
  P        6                -0.25
  P        7                -0.23
  P        8                -0.25
  P        9                -0.23
  P       10                -0.23
  P       11                -0.23
  P       12                -0.24
  P       13                -0.24
  P       14                -0.25
  P       15                -0.25
  P       16                -0.23
  P       17                -0.23
  P       18                -0.23
  P       19                -0.23
  P       20                -0.24
  P       21                -0.24
  P       22                -0.24
  P       23                -0.24
  P       24                -0.24
  In       1                 0.22
  In       2                 0.22
  In       3                 0.27
  In       4                 0.27
  In       5                 0.22
  In       6                 0.22
  In       7                 0.27
  In       8                 0.23
  In       9                 0.23
  In      10                 0.27
  In      11                 0.23
  In      12                 0.23
  In      13                 0.27
  In      14                 0.23
  In      15                 0.22
  In      16                 0.27
  In      17                 0.27
  In      18                 0.22
  In      19                 0.22
  In      20                 0.23
  In      21                 0.23
  In      22                 0.27
  In      23                 0.23
  In      24                 0.22
======================================

 
 A BibTeX formatted list of references used in this run has been written to 
 StackingFaultStructs_(1_1_1)_(1_1_-2)_7.bib
 
Initialisation time =     22.32 s
Calculation time    =   3752.78 s
Finalisation time   =      3.37 s
Total time          =   3778.47 s
Peak Memory Use     = 3447496 kB
 
Overall parallel efficiency rating: Poor (44%)
 
Data was distributed by:-
G-vector (7-way); efficiency rating: Poor (49%)
k-point (36-way); efficiency rating: Very good (80%)
