 +-------------------------------------------------+
 |                                                 |
 |      CCC   AA    SSS  TTTTT  EEEEE  PPPP        |
 |     C     A  A  S       T    E      P   P       |
 |     C     AAAA   SS     T    EEE    PPPP        |
 |     C     A  A     S    T    E      P           |
 |      CCC  A  A  SSS     T    EEEEE  P           |
 |                                                 |
 +-------------------------------------------------+
 |                                                 |
 | Welcome to Academic Release CASTEP version 24.1 |
 | Ab Initio Total Energy Program                  |
 |                                                 |
 | Authors:                                        |
 | M. Segall, M. Probert, C. Pickard, P. Hasnip,   |
 | S. Clark, K. Refson, J. R. Yates,               |
 | A. Bartok-Partay, M. Payne                      |
 |                                                 |
 | Contributors:                                   |
 | P. Lindan, P. Haynes, J. White, V. Milman,      |
 | N. Govind, M. Gibson, P. Tulip, V. Cocula,      |
 | B. Montanari, D. Quigley, M. Glover,            |
 | L. Bernasconi, A. Perlov, M. Plummer,           |
 | E. McNellis, J. Meyer, J. Gale, D. Jochym       |
 | J. Aarons, B. Walker, R. Gillen, D. Jones       |
 | T. Green, I. J. Bush, C. J. Armstrong,          |
 | E. J. Higgins, E. L. Brown, M. S. McFly,        |
 | J. Wilkins, B-C. Shih, P. J. P. Byrne,          |
 | R. J. Maurer, J. C. Womack, J. Dziedzic,        |
 | L. LeBlanc, T. K. Stenczel, J. Kermode,         |
 | S. Sturniolo, B. Shi, B. Durham, M. Evans,      |
 | M. J. Smith, A. Tamerus, Z. Hawkhead,           |
 | V. Ravindran, T. Hollins, S. A. Joyce,          |
 | R. T. Strong, A. M. Reilly, S. J. Donaldson     |
 |                                                 |
 | Copyright (c) 2000 - 2023                       |
 |                                                 |
 |     Distributed under license from Cambridge    |
 |     Enterprise for academic use only.           |
 |                                                 |
 | Please cite                                     |
 |                                                 |
 |     "First principles methods using CASTEP"     |
 |                                                 |
 |         Zeitschrift fuer Kristallographie       |
 |           220(5-6) pp. 567-570 (2005)           |
 |                                                 |
 | S. J. Clark, M. D. Segall, C. J. Pickard,       |
 | P. J. Hasnip, M. J. Probert, K. Refson,         |
 | M. C. Payne                                     |
 |                                                 |
 |       in all publications arising from          |
 |              your use of CASTEP                 |
 |                                                 |
 +-------------------------------------------------+
 |                                                 |
 |              http://www.castep.org              |
 |                                                 |
 +-------------------------------------------------+



 Compiled for  GNU 11.2.0 on 04-04-2024 18:39:17
 from code version 6355fd106 Castep241_branch Thu Mar 7 17:56:19 2024 +0000
 Compiler: GNU Fortran 11.2.0; Optimisation: FAST
 Comms   : MPI VERSION : CRAY MPICH version 8.1.23.14 (ANL base 3.4a2)
 MATHLIBS: default (LAPACK version 3.10.1)
 FFT Lib : fftw3 version commercial-fftw-3.3.10-sse2-avx-avx2-avx2_128
 Fundamental constants values: CODATA 2018

 Run started: Wed, 30 Jul 2025 13:36:17 +0100

 Atomic calculation performed for P: 1s2 2s2 2p6 3s2 3p3

 Converged in 47 iterations to an ae energy of -9309.074 eV

   ============================================================                
   | Pseudopotential Report - Date of generation 30-07-2025   |                
   ------------------------------------------------------------                
   | Element: P Ionic charge:  5.00 Level of theory: RSCAN    |                
   | Atomic Solver: Koelling-Harmon                           |                
   |                                                          |                
   |               Reference Electronic Structure             |                
   |         Orbital         Occupation         Energy        |                
   |            3s              2.000           -0.535        |                
   |            3p              3.000           -0.209        |                
   |                                                          |                
   |                 Pseudopotential Definition               |                
   |        Beta     l      e      Rc     scheme   norm       |                
   |          1      0   -0.535   1.807     qc      0         |                
   |          2      0    0.250   1.807     qc      0         |                
   |          3      1   -0.209   1.807     qc      0         |                
   |          4      1    0.250   1.807     qc      0         |                
   |          5      2    0.000   1.807     qc      0         |                
   |          6      2    0.250   1.807     qc      0         |                
   |         loc     3    0.000   1.807     pn      0         |                
   |                                                          |                
   | Augmentation charge Rinner = 1.263                       |                
   | Partial core correction Rc = 1.263                       |                
   ------------------------------------------------------------                
   | "3|1.8|4|4|5|30:31:32"                                   |                
   ------------------------------------------------------------                
   |      Author: Chris J. Pickard, Cambridge University      |                
   ============================================================                
 Warning: otfg_output_psp cannot write out meta-GGA pseudopotentials presently.

 Atomic calculation performed for In:
 1s2 2s2 2p6 3s2 3p6 3d10 4s2 4p6 4d10 5s2 5p1

 Converged in 84 iterations to an ae energy of -160093.328 eV

   ============================================================                
   | Pseudopotential Report - Date of generation 30-07-2025   |                
   ------------------------------------------------------------                
   | Element: In Ionic charge: 13.00 Level of theory: RSCAN   |                
   | Atomic Solver: Koelling-Harmon                           |                
   |                                                          |                
   |               Reference Electronic Structure             |                
   |         Orbital         Occupation         Energy        |                
   |            4d             10.000           -0.711        |                
   |            5s              2.000           -0.313        |                
   |            5p              1.000           -0.095        |                
   |                                                          |                
   |                 Pseudopotential Definition               |                
   |        Beta     l      e      Rc     scheme   norm       |                
   |          1      0   -0.313   2.501     qc      0         |                
   |          2      0    0.250   2.501     qc      0         |                
   |          3      1   -0.095   2.501     qc      0         |                
   |          4      1    0.250   2.501     qc      0         |                
   |          5      2   -0.711   2.207     qc      0         |                
   |          6      2    0.250   2.207     qc      0         |                
   |         loc     3    0.000   2.501     pn      0         |                
   |                                                          |                
   | Augmentation charge Rinner = 1.504                       |                
   | Partial core correction Rc = 1.504                       |                
   ------------------------------------------------------------                
   | "3|2.5|2.5|1.5|7|8|9|50:51:42U2.2U2.2"                   |                
   ------------------------------------------------------------                
   |      Author: Chris J. Pickard, Cambridge University      |                
   ============================================================                
 Warning: otfg_output_psp cannot write out meta-GGA pseudopotentials presently.

 Pseudo atomic calculation performed for P 3s2 3p3

 Converged in 23 iterations to a total energy of -208.0292 eV

 Pseudo atomic calculation performed for In 4d10 5s2 5p1

 Converged in 42 iterations to a total energy of -1747.4501 eV
 Calculation parallelised over 120 processes.
 Data is distributed by G-vector(6-way) and k-point(20-way)
 Each process may use up to 16 threads.

 ************************************ Title ************************************
 

 ***************************** General Parameters ******************************
  
 output verbosity                               : normal  (1)
 write checkpoint data to                       : 90deg_Singlepoints_6.check
 type of calculation                            : single point energy
 stress calculation                             : off
 density difference calculation                 : off
 electron localisation func (ELF) calculation   : off
 Hirshfeld analysis                             : on
 polarisation (Berry phase) analysis            : off
 molecular orbital projected DOS                : off
 deltaSCF calculation                           : off
 unlimited duration calculation
 timing information                             : on
 memory usage estimate                          : on
 write extra output files                       : on
 write final potential to formatted file        : off
 write final density to formatted file          : off
 write BibTeX reference list                    : on
 write OTFG pseudopotential files               : on
 write electrostatic potential file             : on
 write bands file                               : on
 checkpoint writing                             : off
  
 output         length unit                     : A
 output           mass unit                     : amu
 output           time unit                     : ps
 output         charge unit                     : e
 output           spin unit                     : hbar/2
 output         energy unit                     : eV
 output          force unit                     : eV/A
 output       velocity unit                     : A/ps
 output       pressure unit                     : GPa
 output     inv_length unit                     : 1/A
 output      frequency unit                     : cm-1
 output force constant unit                     : eV/A**2
 output         volume unit                     : A**3
 output   IR intensity unit                     : (D/A)**2/amu
 output         dipole unit                     : D
 output         efield unit                     : eV/A/e
 output        entropy unit                     : J/mol/K
 output    efield chi2 unit                     : pm/V
  
 wavefunctions paging                           : none
 random number generator seed                   :  133617888
 data distribution                              : optimal for this architecture
 optimization strategy                          : balance speed and memory

 *********************** Exchange-Correlation Parameters ***********************
  
 using functional                               : RSCAN
 relativistic treatment                         : Koelling-Harmon
 DFT+D: Semi-empirical dispersion correction    : off

 ************************* Pseudopotential Parameters **************************
  
 pseudopotential representation                 : reciprocal space
 <beta|phi> representation                      : reciprocal space
 spin-orbit coupling                            : off

 **************************** Basis Set Parameters *****************************
  
 plane wave basis set cut-off                   :   900.0000   eV
 size of standard grid                          :     2.0000
 size of   fine   gmax                          :    30.7390   1/A
 finite basis set correction                    : none

 **************************** Electronic Parameters ****************************
  
 number of  electrons                           :  864.0    
 net charge of system                           :  0.000    
 treating system as non-spin-polarized
 number of bands                                :        518

 ********************* Electronic Minimization Parameters **********************
  
 Method: Treating system as metallic with density mixing treatment of electrons,
         and number of  SD  steps               :          1
         and number of  CG  steps               :          4
  
 total energy / atom convergence tol.           : 0.1000E-07   eV
 eigen-energy convergence tolerance             : 0.2222E-08   eV
 max force / atom convergence tol.              : ignored
 convergence tolerance window                   :          3   cycles
 max. number of SCF cycles                      :        100
 number of fixed-spin iterations                :         10
 smearing scheme                                : Gaussian
 smearing width                                 : 0.2000       eV
 Fermi energy convergence tolerance             : 0.2721E-13   eV
 periodic dipole correction                     : NONE

 ************************** Density Mixing Parameters **************************
  
 density-mixing scheme                          : Pulay
 max. length of mixing history                  :         20
 charge density mixing amplitude                : 0.5000    
 cut-off energy for mixing                      :  900.0       eV

 *********************** Population Analysis Parameters ************************
  
 Population analysis with cutoff                :  3.000       A
 Population analysis output                     : summary and pdos components

 *******************************************************************************
  

                           -------------------------------
                                      Unit Cell
                           -------------------------------
        Real Lattice(A)                      Reciprocal Lattice(1/A)
    14.4540490    20.4411120     0.0000000        0.217350353   0.153689910   0.000000000
    14.4540490   -20.4411120     0.0000000        0.217350353  -0.153689910   0.000000000
     0.0000000     0.0000000     4.1725250        0.000000000   0.000000000   1.505847252

                       Lattice parameters(A)       Cell Angles
                    a =     25.035147          alpha =   90.000000
                    b =     25.035147          beta  =   90.000000
                    c =      4.172525          gamma =  109.471220

                       Current cell volume =          2465.602056       A**3
                                   density =             2.838254   AMU/A**3
                                           =             4.713031     g/cm^3

                           -------------------------------
                                     Cell Contents
                           -------------------------------
                         Total number of ions in cell =   96
                      Total number of species in cell =    2
                        Max number of any one species =   48

            xxxxxxxxxxxxxxxxxxxxxxxxxxxxxxxxxxxxxxxxxxxxxxxxxxxxxxxxxxxx
            x  Element    Atom        Fractional coordinates of atoms  x
            x            Number           u          v          w      x
            x----------------------------------------------------------x
            x  P            1         0.274411   0.308581   0.139554   x 
            x  P            2         0.202510   0.234835   0.345868   x 
            x  P            3         0.379692   0.240121   0.533323   x 
            x  P            4         0.507963   0.364467   0.032265   x 
            x  P            5         0.410475   0.104461   0.016403   x 
            x  P            6         0.538317   0.227800   0.515989   x 
            x  P            7         0.572778   0.094393   0.011050   x 
            x  P            8         0.448240   0.970999   0.511510   x 
            x  P            9         0.609971   0.961064   0.510696   x 
            x  P           10         0.735005   0.085692   0.002305   x 
            x  P           11         0.642792   0.827010   0.011766   x 
            x  P           12         0.774887   0.953542   0.504356   x 
            x  P           13         0.533297   0.554673   0.035396   x 
            x  P           14         0.405607   0.428807   0.563428   x 
            x  P           15         0.633154   0.488148   0.523228   x 
            x  P           16         0.756889   0.609986   0.011925   x 
            x  P           17         0.664318   0.351878   0.010203   x 
            x  P           18         0.790132   0.476000   0.501641   x 
            x  P           19         0.822254   0.343163  -0.004069   x 
            x  P           20         0.698024   0.218181   0.504953   x 
            x  P           21         0.858872   0.212502   0.487935   x 
            x  P           22         0.981289   0.337102  -0.019344   x 
            x  P           23         0.899189   0.084791  -0.021965   x 
            x  P           24         0.021683   0.209979   0.471434   x 
            x  P           25         0.783818   0.800840   0.053442   x 
            x  P           26         0.658868   0.678967   0.524946   x 
            x  P           27         0.883733   0.725741   0.500877   x 
            x  P           28         0.003885   0.851404  -0.021079   x 
            x  P           29         0.917450   0.596951  -0.006316   x 
            x  P           30         0.042894   0.722844   0.480005   x 
            x  P           31         0.075055   0.593832  -0.017464   x 
            x  P           32         0.948957   0.466829   0.488868   x 
            x  P           33         0.106183   0.464507   0.473790   x 
            x  P           34         0.232219   0.587595   0.007801   x 
            x  P           35         0.138071   0.336803  -0.053397   x 
            x  P           36         0.263210   0.455989   0.536017   x 
            x  P           37         0.077788   0.098785  -0.064364   x 
            x  P           38         0.951077   0.968876   0.412663   x 
            x  P           39         0.124945   0.979834   0.471747   x 
            x  P           40         0.250121   0.108856  -0.036065   x 
            x  P           41         0.163732   0.850383  -0.015609   x 
            x  P           42         0.287157   0.976885   0.488282   x 
            x  P           43         0.324016   0.845125   0.001021   x 
            x  P           44         0.200453   0.719555   0.495332   x 
            x  P           45         0.357786   0.711273   0.511949   x 
            x  P           46         0.482829   0.836893   0.014900   x 
            x  P           47         0.388632   0.576323   0.027559   x 
            x  P           48         0.514455   0.701309   0.523994   x 
            x  In           1         0.239947   0.394281   0.038732   x 
            x  In           2         0.122423   0.276441   0.441194   x 
            x  In           3         0.339020   0.321482   0.616747   x 
            x  In           4         0.467789   0.447500   0.059054   x 
            x  In           5         0.354219   0.175394   0.024223   x 
            x  In           6         0.485346   0.300096   0.529658   x 
            x  In           7         0.515573   0.163778   0.015388   x 
            x  In           8         0.390953   0.040215   0.514012   x 
            x  In           9         0.553071   0.030615   0.511132   x 
            x  In          10         0.677355   0.154394   0.005237   x 
            x  In          11         0.587306   0.897061   0.011519   x 
            x  In          12         0.714834   0.021555   0.503422   x 
            x  In          13         0.492099   0.636837   0.026251   x 
            x  In          14         0.367308   0.512697   0.529647   x 
            x  In          15         0.594504   0.572218   0.533642   x 
            x  In          16         0.719455   0.694999   0.024850   x 
            x  In          17         0.612307   0.424490   0.023021   x 
            x  In          18         0.737134   0.547141   0.511621   x 
            x  In          19         0.767714   0.412847   0.001556   x 
            x  In          20         0.642550   0.288107   0.509913   x 
            x  In          21         0.801563   0.280037   0.495999   x 
            x  In          22         0.925415   0.404615  -0.011054   x 
            x  In          23         0.838454   0.149620  -0.012226   x 
            x  In          24         0.962264   0.274941   0.480301   x 
            x  In          25         0.747820   0.887778   0.007732   x 
            x  In          26         0.618556   0.761969   0.513404   x 
            x  In          27         0.845681   0.808136   0.558242   x 
            x  In          28         0.931245   0.902724  -0.096994   x 
            x  In          29         0.861478   0.664192  -0.000265   x 
            x  In          30         0.986571   0.789219   0.481214   x 
            x  In          31         0.019808   0.661440  -0.019453   x 
            x  In          32         0.893985   0.534939   0.493890   x 
            x  In          33         0.051110   0.532247   0.481896   x 
            x  In          34         0.178095   0.657055  -0.004288   x 
            x  In          35         0.082460   0.403338  -0.029207   x 
            x  In          36         0.209332   0.525463   0.508506   x 
            x  In          37         1.003532   0.148206  -0.028220   x 
            x  In          38         0.879547   0.021396   0.478432   x 
            x  In          39         0.055259   0.035114   0.439217   x 
            x  In          40         0.182475   0.165788  -0.121507   x 
            x  In          41         0.106033   0.917533  -0.026222   x 
            x  In          42         0.229133   0.044473   0.466168   x 
            x  In          43         0.267105   0.913579  -0.011104   x 
            x  In          44         0.145059   0.787969   0.485205   x 
            x  In          45         0.303801   0.781855   0.501414   x 
            x  In          46         0.427664   0.907362   0.011022   x 
            x  In          47         0.335799   0.647958   0.012787   x 
            x  In          48         0.461266   0.773015   0.515541   x 
            xxxxxxxxxxxxxxxxxxxxxxxxxxxxxxxxxxxxxxxxxxxxxxxxxxxxxxxxxxxx


                         No user defined ionic velocities

                           -------------------------------
                                   Details of Species
                           -------------------------------

                               Mass of species in AMU
                                    P   30.9737600
                                    In  114.8180000

                          Electric Quadrupole Moment (Barn)
                                    P    1.0000000 No Isotope Defined
                                    In    0.7700000 Isotope115

                          Files used for pseudopotentials:
                                    P 3|1.8|4|4|5|30:31:32
                                    In 3|2.5|2.5|1.5|7|8|9|50:51:42U2.2U2.2

                           -------------------------------
                              k-Points For BZ Sampling
                           -------------------------------
                       MP grid size for SCF calculation is  2  2  8
                            with an offset of   0.250  0.250  0.062
                       Number of kpoints used =            20

                           -------------------------------
                               Symmetry and Constraints
                           -------------------------------

                      Maximum deviation from symmetry =  0.00000         ANG

                      Number of symmetry operations   =           1
                      Number of ionic constraints     =           3
                      Point group of crystal =     1: C1, 1, 1
                      Space group of crystal =     1: P1, P 1

             Set iprint > 1 for details on symmetry rotations/translations

                         Centre of mass is constrained
             Set iprint > 1 for details of linear ionic constraints

                         Number of cell constraints= 0
                         Cell constraints are:  1 2 3 4 5 6

                         External pressure/stress (GPa)
                          0.00000   0.00000   0.00000
                                    0.00000   0.00000
                                              0.00000
 
+---------------- MEMORY AND SCRATCH DISK ESTIMATES PER PROCESS --------------+
|                                                     Memory          Disk    |
| Baseline code, static data and system overhead      368.0 MB         0.0 MB |
| BLAS internal memory storage                          0.0 MB         0.0 MB |
| Model and support data                             3663.9 MB         0.0 MB |
| Electronic energy minimisation requirements         956.3 MB         0.0 MB |
| Force calculation requirements                       70.0 MB         0.0 MB |
|                                               ----------------------------- |
| Approx. total storage required per process         4988.2 MB         0.0 MB |
|                                                                             |
| Requirements will fluctuate during execution and may exceed these estimates |
+-----------------------------------------------------------------------------+
Calculating approximate eigenstates for fixed initial Hamiltonian
Cut-off for approx. calculation is   89.988 eV
Improving approx. states at cut-off of  450.000 eV
Resetting cut-off to  900.000 eV
Calculating total energy with cut-off of  900.000 eV.
------------------------------------------------------------------------ <-- SCF
SCF loop      Energy           Fermi           Energy gain       Timer   <-- SCF
                               energy          per atom          (sec)   <-- SCF
------------------------------------------------------------------------ <-- SCF
Initial  -9.45689287E+004  0.00000000E+000                       356.40  <-- SCF
      1  -9.42031197E+004  3.04130299E+000  -3.81051070E+000     693.80  <-- SCF
      2  -9.42035649E+004  3.04059972E+000   4.63776443E-003     920.99  <-- SCF
      3  -9.43036026E+004  3.23171487E+000   1.04205940E+000    1185.02  <-- SCF
      4  -9.43214475E+004  3.28463576E+000   1.85883930E-001    1558.72  <-- SCF
      5  -9.43121535E+004  3.56785727E+000  -9.68124730E-002    1814.25  <-- SCF
      6  -9.43122671E+004  3.63333916E+000   1.18340834E-003    2066.35  <-- SCF
      7  -9.43119950E+004  3.66846260E+000  -2.83421147E-003    2336.32  <-- SCF
      8  -9.43142040E+004  3.67737420E+000   2.30106724E-002    2605.64  <-- SCF
      9  -9.43142408E+004  3.65425301E+000   3.82846802E-004    2872.69  <-- SCF
     10  -9.43142409E+004  3.65767938E+000   6.01136299E-007    3155.32  <-- SCF
     11  -9.43142503E+004  3.65508311E+000   9.81752832E-005    3428.46  <-- SCF
     12  -9.43142526E+004  3.65985067E+000   2.42067572E-005    3699.73  <-- SCF
     13  -9.43142521E+004  3.65935120E+000  -5.40478703E-006    3998.63  <-- SCF
     14  -9.43142521E+004  3.65924430E+000   5.13946425E-007    4279.66  <-- SCF
     15  -9.43142521E+004  3.65924264E+000   7.70519664E-008    4517.14  <-- SCF
     16  -9.43142521E+004  3.65915965E+000  -7.73922598E-009    4735.17  <-- SCF
     17  -9.43142521E+004  3.65924940E+000  -6.94224335E-009    4981.68  <-- SCF
     18  -9.43142521E+004  3.65926817E+000   4.47684338E-008    5192.44  <-- SCF
     19  -9.43142521E+004  3.65928926E+000   2.45037035E-009    5380.57  <-- SCF
     20  -9.43142521E+004  3.65928654E+000   1.29079477E-009    5562.87  <-- SCF
------------------------------------------------------------------------ <-- SCF
 
Final energy, E             =  -94314.19922985     eV
Final free energy (E-TS)    =  -94314.25214823     eV
(energies not corrected for finite basis set)
 
NB est. 0K energy (E-0.5TS)      =  -94314.22568904     eV
 

 ************************** Forces **************************
 *                                                          *
 *               Cartesian components (eV/A)                *
 * -------------------------------------------------------- *
 *                         x            y            z      *
 *                                                          *
 * P               1     -0.02172      0.00820      0.09882 *
 * P               2      0.06399      0.03771     -0.09992 *
 * P               3      0.04387     -0.02452      0.01792 *
 * P               4     -0.08642     -0.00248     -0.01026 *
 * P               5      0.02038     -0.03392      0.02140 *
 * P               6     -0.04571     -0.02914      0.00690 *
 * P               7     -0.00709     -0.02495      0.00226 *
 * P               8      0.03405     -0.02900      0.00674 *
 * P               9     -0.00105     -0.05517     -0.00023 *
 * P              10     -0.01892      0.00211      0.00417 *
 * P              11     -0.06618     -0.09730      0.00330 *
 * P              12     -0.00663      0.03000      0.01913 *
 * P              13     -0.11147     -0.00042      0.03053 *
 * P              14     -0.01536      0.02879      0.04797 *
 * P              15     -0.07282      0.02236      0.00210 *
 * P              16     -0.00878     -0.00968     -0.00149 *
 * P              17     -0.06011     -0.00225      0.00361 *
 * P              18     -0.06538      0.01119      0.00563 *
 * P              19     -0.03048      0.01497      0.00629 *
 * P              20     -0.03546      0.02727      0.01082 *
 * P              21     -0.01578     -0.00605     -0.00120 *
 * P              22     -0.00361      0.02824      0.00796 *
 * P              23      0.01239     -0.03392     -0.02187 *
 * P              24     -0.00339      0.00692     -0.00250 *
 * P              25     -0.19242      0.09629      0.17950 *
 * P              26     -0.15771      0.00710      0.05445 *
 * P              27     -0.00242     -0.07349      0.01379 *
 * P              28      0.13859      0.05501      0.02950 *
 * P              29     -0.04394      0.00193      0.01773 *
 * P              30      0.03847      0.06583      0.00823 *
 * P              31      0.00887      0.05928     -0.00987 *
 * P              32     -0.00811      0.02896      0.00778 *
 * P              33      0.01289      0.04506     -0.01993 *
 * P              34      0.00812      0.03136     -0.00827 *
 * P              35     -0.00109      0.00437      0.02286 *
 * P              36     -0.00662      0.05819     -0.04686 *
 * P              37      0.12417      0.02147     -0.10908 *
 * P              38      0.18675      0.10132     -0.15636 *
 * P              39      0.10079      0.01165     -0.01381 *
 * P              40      0.07537     -0.01423     -0.01457 *
 * P              41      0.13278      0.08183     -0.00550 *
 * P              42      0.08393     -0.00668     -0.00622 *
 * P              43      0.03578      0.01681     -0.00850 *
 * P              44      0.03013      0.04748     -0.00658 *
 * P              45     -0.00025      0.01314     -0.00360 *
 * P              46      0.00771     -0.00962      0.00954 *
 * P              47     -0.05630      0.02976      0.00603 *
 * P              48     -0.05567     -0.01776      0.00781 *
 * In              1     -0.02995     -0.04812      0.00987 *
 * In              2     -0.02774     -0.01895     -0.02316 *
 * In              3     -0.00104      0.02019     -0.02226 *
 * In              4      0.04325      0.04436     -0.03841 *
 * In              5     -0.05088      0.04534     -0.02060 *
 * In              6      0.07856      0.00762      0.00993 *
 * In              7      0.04889      0.03385     -0.00784 *
 * In              8     -0.03997      0.00743     -0.01564 *
 * In              9      0.00398      0.01636     -0.00573 *
 * In             10      0.01543     -0.00997     -0.00135 *
 * In             11     -0.01702      0.05098     -0.01247 *
 * In             12      0.01571      0.11873      0.00299 *
 * In             13      0.03083      0.01060     -0.01237 *
 * In             14     -0.01266     -0.07604      0.01564 *
 * In             15      0.04488     -0.01042      0.01541 *
 * In             16      0.06127     -0.06891      0.08166 *
 * In             17      0.07022     -0.01554     -0.00909 *
 * In             18      0.07843     -0.04536      0.00277 *
 * In             19      0.06011     -0.02071      0.00029 *
 * In             20      0.04912     -0.00958      0.00113 *
 * In             21      0.05262     -0.02207     -0.00698 *
 * In             22      0.03186     -0.04083     -0.00473 *
 * In             23      0.01736      0.07877     -0.01441 *
 * In             24      0.02112     -0.06770     -0.00831 *
 * In             25     -0.06103      0.18425      0.02920 *
 * In             26      0.02173      0.07318      0.00153 *
 * In             27      0.25551     -0.25811      0.12995 *
 * In             28     -0.08318      0.04490     -0.19596 *
 * In             29      0.15831     -0.05677      0.02012 *
 * In             30     -0.02522     -0.10265      0.01541 *
 * In             31     -0.01579     -0.07097      0.00153 *
 * In             32      0.07149     -0.06940     -0.00211 *
 * In             33      0.00249     -0.02976     -0.00038 *
 * In             34     -0.02509     -0.05878      0.00495 *
 * In             35      0.00077     -0.07366      0.02640 *
 * In             36     -0.00324     -0.07615      0.00512 *
 * In             37     -0.03467      0.00631     -0.05593 *
 * In             38     -0.01751      0.10261     -0.04961 *
 * In             39     -0.10420     -0.02174     -0.06649 *
 * In             40     -0.06345      0.02266      0.04647 *
 * In             41     -0.19830      0.00501      0.00779 *
 * In             42     -0.12677     -0.02522      0.01983 *
 * In             43     -0.10024      0.00617      0.01164 *
 * In             44     -0.06565     -0.06115      0.00134 *
 * In             45     -0.04439     -0.03118      0.00694 *
 * In             46     -0.05002      0.01649     -0.00166 *
 * In             47      0.00976     -0.03390      0.00335 *
 * In             48     -0.00379      0.00384     -0.00189 *
 *                                                          *
 ************************************************************

 Pseudo atomic calculation performed for P 3s2 3p3

 Converged in 23 iterations to a total energy of -208.0292 eV

 Pseudo atomic calculation performed for In 4d10 5s2 5p1

 Converged in 42 iterations to a total energy of -1747.4501 eV
Charge spilling parameter for spin component 1 = 0.17%

            Orbital Populations       
     Ion    Atom   Orbital             Charge
  -------------------------------------------
      P     1      S                    1.737
      P     1      Px                   1.055
      P     1      Py                   1.362
      P     1      Pz                   1.325
      P     2      S                    1.750
      P     2      Px                   1.046
      P     2      Py                   1.362
      P     2      Pz                   1.318
      P     3      S                    1.746
      P     3      Px                   1.312
      P     3      Py                   1.301
      P     3      Pz                   1.307
      P     4      S                    1.741
      P     4      Px                   1.313
      P     4      Py                   1.320
      P     4      Pz                   1.299
      P     5      S                    1.744
      P     5      Px                   1.314
      P     5      Py                   1.297
      P     5      Pz                   1.309
      P     6      S                    1.739
      P     6      Px                   1.314
      P     6      Py                   1.306
      P     6      Pz                   1.311
      P     7      S                    1.741
      P     7      Px                   1.316
      P     7      Py                   1.302
      P     7      Pz                   1.310
      P     8      S                    1.741
      P     8      Px                   1.319
      P     8      Py                   1.301
      P     8      Pz                   1.308
      P     9      S                    1.742
      P     9      Px                   1.311
      P     9      Py                   1.303
      P     9      Pz                   1.311
      P    10      S                    1.742
      P    10      Px                   1.312
      P    10      Py                   1.305
      P    10      Pz                   1.311
      P    11      S                    1.743
      P    11      Px                   1.310
      P    11      Py                   1.306
      P    11      Pz                   1.302
      P    12      S                    1.752
      P    12      Px                   1.300
      P    12      Py                   1.304
      P    12      Pz                   1.301
      P    13      S                    1.740
      P    13      Px                   1.283
      P    13      Py                   1.314
      P    13      Pz                   1.329
      P    14      S                    1.746
      P    14      Px                   1.272
      P    14      Py                   1.320
      P    14      Pz                   1.326
      P    15      S                    1.738
      P    15      Px                   1.317
      P    15      Py                   1.321
      P    15      Pz                   1.298
      P    16      S                    1.737
      P    16      Px                   1.318
      P    16      Py                   1.320
      P    16      Pz                   1.300
      P    17      S                    1.737
      P    17      Px                   1.315
      P    17      Py                   1.313
      P    17      Pz                   1.307
      P    18      S                    1.734
      P    18      Px                   1.316
      P    18      Py                   1.316
      P    18      Pz                   1.307
      P    19      S                    1.733
      P    19      Px                   1.314
      P    19      Py                   1.318
      P    19      Pz                   1.310
      P    20      S                    1.738
      P    20      Px                   1.315
      P    20      Py                   1.308
      P    20      Pz                   1.310
      P    21      S                    1.735
      P    21      Px                   1.313
      P    21      Py                   1.313
      P    21      Pz                   1.313
      P    22      S                    1.729
      P    22      Px                   1.313
      P    22      Py                   1.325
      P    22      Pz                   1.311
      P    23      S                    1.740
      P    23      Px                   1.297
      P    23      Py                   1.309
      P    23      Pz                   1.320
      P    24      S                    1.731
      P    24      Px                   1.294
      P    24      Py                   1.315
      P    24      Pz                   1.330
      P    25      S                    1.749
      P    25      Px                   1.268
      P    25      Py                   1.299
      P    25      Pz                   1.315
      P    26      S                    1.740
      P    26      Px                   1.285
      P    26      Py                   1.310
      P    26      Pz                   1.334
      P    27      S                    1.730
      P    27      Px                   1.308
      P    27      Py                   1.330
      P    27      Pz                   1.309
      P    28      S                    1.735
      P    28      Px                   1.298
      P    28      Py                   1.326
      P    28      Pz                   1.300
      P    29      S                    1.730
      P    29      Px                   1.313
      P    29      Py                   1.326
      P    29      Pz                   1.309
      P    30      S                    1.727
      P    30      Px                   1.314
      P    30      Py                   1.332
      P    30      Pz                   1.306
      P    31      S                    1.728
      P    31      Px                   1.311
      P    31      Py                   1.335
      P    31      Pz                   1.305
      P    32      S                    1.730
      P    32      Px                   1.310
      P    32      Py                   1.329
      P    32      Pz                   1.309
      P    33      S                    1.726
      P    33      Px                   1.313
      P    33      Py                   1.333
      P    33      Pz                   1.305
      P    34      S                    1.731
      P    34      Px                   1.315
      P    34      Py                   1.323
      P    34      Pz                   1.305
      P    35      S                    1.720
      P    35      Px                   1.329
      P    35      Py                   1.324
      P    35      Pz                   1.306
      P    36      S                    1.729
      P    36      Px                   1.327
      P    36      Py                   1.321
      P    36      Pz                   1.288
      P    37      S                    1.751
      P    37      Px                   1.263
      P    37      Py                   1.318
      P    37      Pz                   1.325
      P    38      S                    1.757
      P    38      Px                   1.250
      P    38      Py                   1.304
      P    38      Pz                   1.309
      P    39      S                    1.738
      P    39      Px                   1.304
      P    39      Py                   1.318
      P    39      Pz                   1.311
      P    40      S                    1.747
      P    40      Px                   1.308
      P    40      Py                   1.298
      P    40      Pz                   1.310
      P    41      S                    1.735
      P    41      Px                   1.310
      P    41      Py                   1.323
      P    41      Pz                   1.305
      P    42      S                    1.739
      P    42      Px                   1.316
      P    42      Py                   1.304
      P    42      Pz                   1.311
      P    43      S                    1.737
      P    43      Px                   1.316
      P    43      Py                   1.312
      P    43      Pz                   1.306
      P    44      S                    1.732
      P    44      Px                   1.315
      P    44      Py                   1.322
      P    44      Pz                   1.305
      P    45      S                    1.736
      P    45      Px                   1.316
      P    45      Py                   1.315
      P    45      Pz                   1.304
      P    46      S                    1.740
      P    46      Px                   1.315
      P    46      Py                   1.308
      P    46      Pz                   1.305
      P    47      S                    1.734
      P    47      Px                   1.322
      P    47      Py                   1.314
      P    47      Pz                   1.299
      P    48      S                    1.738
      P    48      Px                   1.317
      P    48      Py                   1.312
      P    48      Pz                   1.301
     In     1      Dzz                  1.997
     In     1      Dzy                  1.998
     In     1      Dzx                  1.997
     In     1      Dxx-yy               1.998
     In     1      Dxy                  1.998
     In     1      S                    1.413
     In     1      Px                   0.498
     In     1      Py                   0.461
     In     1      Pz                   0.485
     In     1      S                   -0.499
     In     2      Dzz                  1.997
     In     2      Dzy                  1.998
     In     2      Dzx                  1.998
     In     2      Dxx-yy               1.997
     In     2      Dxy                  1.998
     In     2      S                    1.404
     In     2      Px                   0.494
     In     2      Py                   0.469
     In     2      Pz                   0.491
     In     2      S                   -0.509
     In     3      Dzz                  1.998
     In     3      Dzy                  1.998
     In     3      Dzx                  1.998
     In     3      Dxx-yy               1.998
     In     3      Dxy                  1.999
     In     3      S                    1.428
     In     3      Px                   0.461
     In     3      Py                   0.476
     In     3      Pz                   0.457
     In     3      S                   -0.482
     In     4      Dzz                  1.998
     In     4      Dzy                  1.998
     In     4      Dzx                  1.998
     In     4      Dxx-yy               1.998
     In     4      Dxy                  1.999
     In     4      S                    1.424
     In     4      Px                   0.472
     In     4      Py                   0.464
     In     4      Pz                   0.484
     In     4      S                   -0.513
     In     5      Dzz                  1.998
     In     5      Dzy                  1.999
     In     5      Dzx                  1.998
     In     5      Dxx-yy               1.998
     In     5      Dxy                  1.999
     In     5      S                    1.432
     In     5      Px                   0.482
     In     5      Py                   0.469
     In     5      Pz                   0.461
     In     5      S                   -0.502
     In     6      Dzz                  1.998
     In     6      Dzy                  1.999
     In     6      Dzx                  1.998
     In     6      Dxx-yy               1.998
     In     6      Dxy                  1.998
     In     6      S                    1.421
     In     6      Px                   0.481
     In     6      Py                   0.475
     In     6      Pz                   0.473
     In     6      S                   -0.497
     In     7      Dzz                  1.998
     In     7      Dzy                  1.999
     In     7      Dzx                  1.998
     In     7      Dxx-yy               1.997
     In     7      Dxy                  1.998
     In     7      S                    1.418
     In     7      Px                   0.484
     In     7      Py                   0.477
     In     7      Pz                   0.473
     In     7      S                   -0.507
     In     8      Dzz                  1.998
     In     8      Dzy                  1.999
     In     8      Dzx                  1.998
     In     8      Dxx-yy               1.997
     In     8      Dxy                  1.999
     In     8      S                    1.418
     In     8      Px                   0.484
     In     8      Py                   0.478
     In     8      Pz                   0.471
     In     8      S                   -0.508
     In     9      Dzz                  1.998
     In     9      Dzy                  1.998
     In     9      Dzx                  1.998
     In     9      Dxx-yy               1.997
     In     9      Dxy                  1.998
     In     9      S                    1.418
     In     9      Px                   0.483
     In     9      Py                   0.480
     In     9      Pz                   0.475
     In     9      S                   -0.503
     In    10      Dzz                  1.998
     In    10      Dzy                  1.998
     In    10      Dzx                  1.998
     In    10      Dxx-yy               1.997
     In    10      Dxy                  1.998
     In    10      S                    1.420
     In    10      Px                   0.485
     In    10      Py                   0.478
     In    10      Pz                   0.475
     In    10      S                   -0.510
     In    11      Dzz                  1.998
     In    11      Dzy                  1.999
     In    11      Dzx                  1.998
     In    11      Dxx-yy               1.997
     In    11      Dxy                  1.998
     In    11      S                    1.419
     In    11      Px                   0.487
     In    11      Py                   0.485
     In    11      Pz                   0.471
     In    11      S                   -0.503
     In    12      Dzz                  1.998
     In    12      Dzy                  1.999
     In    12      Dzx                  1.998
     In    12      Dxx-yy               1.998
     In    12      Dxy                  1.999
     In    12      S                    1.409
     In    12      Px                   0.483
     In    12      Py                   0.477
     In    12      Pz                   0.472
     In    12      S                   -0.496
     In    13      Dzz                  1.998
     In    13      Dzy                  1.999
     In    13      Dzx                  1.998
     In    13      Dxx-yy               1.998
     In    13      Dxy                  1.998
     In    13      S                    1.421
     In    13      Px                   0.489
     In    13      Py                   0.473
     In    13      Pz                   0.470
     In    13      S                   -0.509
     In    14      Dzz                  1.997
     In    14      Dzy                  1.999
     In    14      Dzx                  1.998
     In    14      Dxx-yy               1.998
     In    14      Dxy                  1.998
     In    14      S                    1.420
     In    14      Px                   0.491
     In    14      Py                   0.472
     In    14      Pz                   0.474
     In    14      S                   -0.515
     In    15      Dzz                  1.998
     In    15      Dzy                  1.998
     In    15      Dzx                  1.998
     In    15      Dxx-yy               1.998
     In    15      Dxy                  1.998
     In    15      S                    1.426
     In    15      Px                   0.473
     In    15      Py                   0.461
     In    15      Pz                   0.490
     In    15      S                   -0.522
     In    16      Dzz                  1.998
     In    16      Dzy                  1.998
     In    16      Dzx                  1.998
     In    16      Dxx-yy               1.998
     In    16      Dxy                  1.998
     In    16      S                    1.425
     In    16      Px                   0.470
     In    16      Py                   0.463
     In    16      Pz                   0.494
     In    16      S                   -0.505
     In    17      Dzz                  1.998
     In    17      Dzy                  1.998
     In    17      Dzx                  1.998
     In    17      Dxx-yy               1.997
     In    17      Dxy                  1.998
     In    17      S                    1.421
     In    17      Px                   0.487
     In    17      Py                   0.477
     In    17      Pz                   0.477
     In    17      S                   -0.518
     In    18      Dzz                  1.997
     In    18      Dzy                  1.998
     In    18      Dzx                  1.998
     In    18      Dxx-yy               1.997
     In    18      Dxy                  1.998
     In    18      S                    1.420
     In    18      Px                   0.489
     In    18      Py                   0.481
     In    18      Pz                   0.480
     In    18      S                   -0.530
     In    19      Dzz                  1.997
     In    19      Dzy                  1.998
     In    19      Dzx                  1.998
     In    19      Dxx-yy               1.997
     In    19      Dxy                  1.998
     In    19      S                    1.422
     In    19      Px                   0.490
     In    19      Py                   0.480
     In    19      Pz                   0.477
     In    19      S                   -0.536
     In    20      Dzz                  1.998
     In    20      Dzy                  1.999
     In    20      Dzx                  1.998
     In    20      Dxx-yy               1.997
     In    20      Dxy                  1.998
     In    20      S                    1.420
     In    20      Px                   0.487
     In    20      Py                   0.478
     In    20      Pz                   0.474
     In    20      S                   -0.517
     In    21      Dzz                  1.997
     In    21      Dzy                  1.998
     In    21      Dzx                  1.998
     In    21      Dxx-yy               1.997
     In    21      Dxy                  1.998
     In    21      S                    1.422
     In    21      Px                   0.487
     In    21      Py                   0.481
     In    21      Pz                   0.476
     In    21      S                   -0.528
     In    22      Dzz                  1.997
     In    22      Dzy                  1.998
     In    22      Dzx                  1.997
     In    22      Dxx-yy               1.997
     In    22      Dxy                  1.998
     In    22      S                    1.424
     In    22      Px                   0.493
     In    22      Py                   0.481
     In    22      Pz                   0.479
     In    22      S                   -0.545
     In    23      Dzz                  1.998
     In    23      Dzy                  1.998
     In    23      Dzx                  1.998
     In    23      Dxx-yy               1.997
     In    23      Dxy                  1.998
     In    23      S                    1.423
     In    23      Px                   0.485
     In    23      Py                   0.483
     In    23      Pz                   0.477
     In    23      S                   -0.523
     In    24      Dzz                  1.997
     In    24      Dzy                  1.998
     In    24      Dzx                  1.998
     In    24      Dxx-yy               1.997
     In    24      Dxy                  1.998
     In    24      S                    1.429
     In    24      Px                   0.487
     In    24      Py                   0.480
     In    24      Pz                   0.479
     In    24      S                   -0.546
     In    25      Dzz                  1.998
     In    25      Dzy                  1.999
     In    25      Dzx                  1.998
     In    25      Dxx-yy               1.998
     In    25      Dxy                  1.998
     In    25      S                    1.424
     In    25      Px                   0.491
     In    25      Py                   0.466
     In    25      Pz                   0.464
     In    25      S                   -0.490
     In    26      Dzz                  1.998
     In    26      Dzy                  1.999
     In    26      Dzx                  1.998
     In    26      Dxx-yy               1.998
     In    26      Dxy                  1.998
     In    26      S                    1.417
     In    26      Px                   0.486
     In    26      Py                   0.470
     In    26      Pz                   0.466
     In    26      S                   -0.494
     In    27      Dzz                  1.998
     In    27      Dzy                  1.998
     In    27      Dzx                  1.997
     In    27      Dxx-yy               1.998
     In    27      Dxy                  1.999
     In    27      S                    1.434
     In    27      Px                   0.605
     In    27      Py                   0.456
     In    27      Pz                   0.486
     In    27      S                   -0.429
     In    28      Dzz                  1.998
     In    28      Dzy                  1.998
     In    28      Dzx                  1.997
     In    28      Dxx-yy               1.998
     In    28      Dxy                  1.999
     In    28      S                    1.435
     In    28      Px                   0.579
     In    28      Py                   0.462
     In    28      Pz                   0.479
     In    28      S                   -0.423
     In    29      Dzz                  1.997
     In    29      Dzy                  1.998
     In    29      Dzx                  1.997
     In    29      Dxx-yy               1.997
     In    29      Dxy                  1.998
     In    29      S                    1.414
     In    29      Px                   0.491
     In    29      Py                   0.485
     In    29      Pz                   0.490
     In    29      S                   -0.537
     In    30      Dzz                  1.997
     In    30      Dzy                  1.998
     In    30      Dzx                  1.998
     In    30      Dxx-yy               1.997
     In    30      Dxy                  1.998
     In    30      S                    1.414
     In    30      Px                   0.492
     In    30      Py                   0.474
     In    30      Pz                   0.485
     In    30      S                   -0.555
     In    31      Dzz                  1.997
     In    31      Dzy                  1.998
     In    31      Dzx                  1.997
     In    31      Dxx-yy               1.997
     In    31      Dxy                  1.998
     In    31      S                    1.428
     In    31      Px                   0.490
     In    31      Py                   0.479
     In    31      Pz                   0.483
     In    31      S                   -0.551
     In    32      Dzz                  1.997
     In    32      Dzy                  1.998
     In    32      Dzx                  1.997
     In    32      Dxx-yy               1.997
     In    32      Dxy                  1.998
     In    32      S                    1.423
     In    32      Px                   0.491
     In    32      Py                   0.483
     In    32      Pz                   0.483
     In    32      S                   -0.553
     In    33      Dzz                  1.997
     In    33      Dzy                  1.998
     In    33      Dzx                  1.997
     In    33      Dxx-yy               1.997
     In    33      Dxy                  1.998
     In    33      S                    1.422
     In    33      Px                   0.491
     In    33      Py                   0.480
     In    33      Pz                   0.482
     In    33      S                   -0.550
     In    34      Dzz                  1.997
     In    34      Dzy                  1.998
     In    34      Dzx                  1.998
     In    34      Dxx-yy               1.997
     In    34      Dxy                  1.998
     In    34      S                    1.426
     In    34      Px                   0.490
     In    34      Py                   0.479
     In    34      Pz                   0.478
     In    34      S                   -0.546
     In    35      Dzz                  1.997
     In    35      Dzy                  1.998
     In    35      Dzx                  1.997
     In    35      Dxx-yy               1.997
     In    35      Dxy                  1.998
     In    35      S                    1.432
     In    35      Px                   0.495
     In    35      Py                   0.478
     In    35      Pz                   0.483
     In    35      S                   -0.566
     In    36      Dzz                  1.997
     In    36      Dzy                  1.998
     In    36      Dzx                  1.997
     In    36      Dxx-yy               1.997
     In    36      Dxy                  1.998
     In    36      S                    1.431
     In    36      Px                   0.491
     In    36      Py                   0.477
     In    36      Pz                   0.480
     In    36      S                   -0.550
     In    37      Dzz                  1.997
     In    37      Dzy                  1.998
     In    37      Dzx                  1.998
     In    37      Dxx-yy               1.997
     In    37      Dxy                  1.998
     In    37      S                    1.421
     In    37      Px                   0.482
     In    37      Py                   0.481
     In    37      Pz                   0.478
     In    37      S                   -0.520
     In    38      Dzz                  1.998
     In    38      Dzy                  1.998
     In    38      Dzx                  1.998
     In    38      Dxx-yy               1.997
     In    38      Dxy                  1.999
     In    38      S                    1.421
     In    38      Px                   0.475
     In    38      Py                   0.487
     In    38      Pz                   0.475
     In    38      S                   -0.508
     In    39      Dzz                  1.998
     In    39      Dzy                  1.998
     In    39      Dzx                  1.998
     In    39      Dxx-yy               1.997
     In    39      Dxy                  1.998
     In    39      S                    1.436
     In    39      Px                   0.487
     In    39      Py                   0.483
     In    39      Pz                   0.470
     In    39      S                   -0.478
     In    40      Dzz                  1.998
     In    40      Dzy                  1.999
     In    40      Dzx                  1.998
     In    40      Dxx-yy               1.997
     In    40      Dxy                  1.999
     In    40      S                    1.438
     In    40      Px                   0.474
     In    40      Py                   0.488
     In    40      Pz                   0.435
     In    40      S                   -0.484
     In    41      Dzz                  1.997
     In    41      Dzy                  1.998
     In    41      Dzx                  1.998
     In    41      Dxx-yy               1.997
     In    41      Dxy                  1.998
     In    41      S                    1.429
     In    41      Px                   0.495
     In    41      Py                   0.475
     In    41      Pz                   0.477
     In    41      S                   -0.541
     In    42      Dzz                  1.998
     In    42      Dzy                  1.999
     In    42      Dzx                  1.998
     In    42      Dxx-yy               1.997
     In    42      Dxy                  1.999
     In    42      S                    1.429
     In    42      Px                   0.484
     In    42      Py                   0.482
     In    42      Pz                   0.467
     In    42      S                   -0.509
     In    43      Dzz                  1.998
     In    43      Dzy                  1.998
     In    43      Dzx                  1.998
     In    43      Dxx-yy               1.997
     In    43      Dxy                  1.998
     In    43      S                    1.425
     In    43      Px                   0.490
     In    43      Py                   0.478
     In    43      Pz                   0.472
     In    43      S                   -0.519
     In    44      Dzz                  1.997
     In    44      Dzy                  1.998
     In    44      Dzx                  1.998
     In    44      Dxx-yy               1.997
     In    44      Dxy                  1.998
     In    44      S                    1.429
     In    44      Px                   0.490
     In    44      Py                   0.479
     In    44      Pz                   0.478
     In    44      S                   -0.538
     In    45      Dzz                  1.997
     In    45      Dzy                  1.998
     In    45      Dzx                  1.998
     In    45      Dxx-yy               1.997
     In    45      Dxy                  1.998
     In    45      S                    1.424
     In    45      Px                   0.489
     In    45      Py                   0.479
     In    45      Pz                   0.475
     In    45      S                   -0.530
     In    46      Dzz                  1.998
     In    46      Dzy                  1.998
     In    46      Dzx                  1.998
     In    46      Dxx-yy               1.997
     In    46      Dxy                  1.998
     In    46      S                    1.419
     In    46      Px                   0.487
     In    46      Py                   0.479
     In    46      Pz                   0.474
     In    46      S                   -0.512
     In    47      Dzz                  1.997
     In    47      Dzy                  1.998
     In    47      Dzx                  1.998
     In    47      Dxx-yy               1.997
     In    47      Dxy                  1.998
     In    47      S                    1.427
     In    47      Px                   0.491
     In    47      Py                   0.477
     In    47      Pz                   0.475
     In    47      S                   -0.528
     In    48      Dzz                  1.998
     In    48      Dzy                  1.998
     In    48      Dzx                  1.998
     In    48      Dxx-yy               1.997
     In    48      Dxy                  1.998
     In    48      S                    1.421
     In    48      Px                   0.489
     In    48      Py                   0.481
     In    48      Pz                   0.472
     In    48      S                   -0.518
  -------------------------------------------
                           Total:     864.000
  -------------------------------------------

     Atomic Populations (Mulliken)
     -----------------------------
Species          Ion     s       p       d       f      Total   Charge (e)
==========================================================================
  P               1     1.737   3.742   0.000   0.000   5.479    -0.479
  P               2     1.750   3.726   0.000   0.000   5.476    -0.476
  P               3     1.746   3.920   0.000   0.000   5.666    -0.666
  P               4     1.741   3.932   0.000   0.000   5.673    -0.673
  P               5     1.744   3.920   0.000   0.000   5.664    -0.664
  P               6     1.739   3.931   0.000   0.000   5.670    -0.670
  P               7     1.741   3.928   0.000   0.000   5.669    -0.669
  P               8     1.741   3.927   0.000   0.000   5.668    -0.668
  P               9     1.742   3.925   0.000   0.000   5.668    -0.668
  P              10     1.742   3.927   0.000   0.000   5.669    -0.669
  P              11     1.743   3.918   0.000   0.000   5.661    -0.661
  P              12     1.752   3.906   0.000   0.000   5.658    -0.658
  P              13     1.740   3.927   0.000   0.000   5.668    -0.668
  P              14     1.746   3.918   0.000   0.000   5.664    -0.664
  P              15     1.738   3.937   0.000   0.000   5.675    -0.675
  P              16     1.737   3.939   0.000   0.000   5.675    -0.675
  P              17     1.737   3.935   0.000   0.000   5.672    -0.672
  P              18     1.734   3.940   0.000   0.000   5.674    -0.674
  P              19     1.733   3.942   0.000   0.000   5.675    -0.675
  P              20     1.738   3.934   0.000   0.000   5.672    -0.672
  P              21     1.735   3.940   0.000   0.000   5.674    -0.674
  P              22     1.729   3.949   0.000   0.000   5.678    -0.678
  P              23     1.740   3.925   0.000   0.000   5.665    -0.665
  P              24     1.731   3.940   0.000   0.000   5.671    -0.671
  P              25     1.749   3.883   0.000   0.000   5.632    -0.632
  P              26     1.740   3.929   0.000   0.000   5.668    -0.668
  P              27     1.730   3.947   0.000   0.000   5.677    -0.677
  P              28     1.735   3.923   0.000   0.000   5.658    -0.658
  P              29     1.730   3.948   0.000   0.000   5.677    -0.677
  P              30     1.727   3.952   0.000   0.000   5.679    -0.679
  P              31     1.728   3.950   0.000   0.000   5.679    -0.679
  P              32     1.730   3.948   0.000   0.000   5.678    -0.678
  P              33     1.726   3.952   0.000   0.000   5.678    -0.678
  P              34     1.731   3.943   0.000   0.000   5.674    -0.674
  P              35     1.720   3.958   0.000   0.000   5.678    -0.678
  P              36     1.729   3.936   0.000   0.000   5.665    -0.665
  P              37     1.751   3.906   0.000   0.000   5.657    -0.657
  P              38     1.757   3.862   0.000   0.000   5.619    -0.619
  P              39     1.738   3.932   0.000   0.000   5.670    -0.670
  P              40     1.747   3.916   0.000   0.000   5.663    -0.663
  P              41     1.735   3.937   0.000   0.000   5.672    -0.672
  P              42     1.739   3.931   0.000   0.000   5.670    -0.670
  P              43     1.737   3.934   0.000   0.000   5.671    -0.671
  P              44     1.732   3.942   0.000   0.000   5.675    -0.675
  P              45     1.736   3.935   0.000   0.000   5.671    -0.671
  P              46     1.740   3.929   0.000   0.000   5.669    -0.669
  P              47     1.734   3.935   0.000   0.000   5.669    -0.669
  P              48     1.738   3.930   0.000   0.000   5.668    -0.668
  In              1     0.913   1.445   9.988   0.000  12.346     0.654
  In              2     0.895   1.454   9.988   0.000  12.336     0.664
  In              3     0.946   1.395   9.991   0.000  12.332     0.668
  In              4     0.911   1.420   9.990   0.000  12.321     0.679
  In              5     0.929   1.413   9.991   0.000  12.333     0.667
  In              6     0.924   1.429   9.990   0.000  12.343     0.657
  In              7     0.911   1.435   9.990   0.000  12.335     0.665
  In              8     0.911   1.433   9.990   0.000  12.334     0.666
  In              9     0.914   1.438   9.990   0.000  12.343     0.657
  In             10     0.910   1.438   9.990   0.000  12.338     0.662
  In             11     0.916   1.443   9.990   0.000  12.349     0.651
  In             12     0.912   1.432   9.991   0.000  12.335     0.665
  In             13     0.911   1.432   9.990   0.000  12.333     0.667
  In             14     0.905   1.438   9.989   0.000  12.333     0.667
  In             15     0.905   1.423   9.990   0.000  12.318     0.682
  In             16     0.919   1.427   9.990   0.000  12.336     0.664
  In             17     0.902   1.441   9.989   0.000  12.333     0.667
  In             18     0.890   1.450   9.989   0.000  12.329     0.671
  In             19     0.886   1.447   9.989   0.000  12.322     0.678
  In             20     0.903   1.438   9.990   0.000  12.331     0.669
  In             21     0.895   1.444   9.989   0.000  12.328     0.672
  In             22     0.879   1.453   9.988   0.000  12.321     0.679
  In             23     0.900   1.445   9.989   0.000  12.334     0.666
  In             24     0.882   1.446   9.989   0.000  12.317     0.683
  In             25     0.935   1.421   9.991   0.000  12.346     0.654
  In             26     0.923   1.422   9.990   0.000  12.336     0.664
  In             27     1.005   1.547   9.989   0.000  12.541     0.459
  In             28     1.012   1.519   9.990   0.000  12.521     0.479
  In             29     0.877   1.466   9.988   0.000  12.331     0.669
  In             30     0.859   1.451   9.988   0.000  12.299     0.701
  In             31     0.877   1.452   9.988   0.000  12.317     0.683
  In             32     0.869   1.457   9.988   0.000  12.315     0.685
  In             33     0.871   1.453   9.988   0.000  12.313     0.687
  In             34     0.880   1.447   9.989   0.000  12.316     0.684
  In             35     0.865   1.456   9.988   0.000  12.309     0.691
  In             36     0.881   1.449   9.988   0.000  12.318     0.682
  In             37     0.901   1.441   9.989   0.000  12.331     0.669
  In             38     0.913   1.437   9.990   0.000  12.340     0.660
  In             39     0.958   1.440   9.990   0.000  12.388     0.612
  In             40     0.955   1.397   9.991   0.000  12.343     0.657
  In             41     0.889   1.447   9.989   0.000  12.325     0.675
  In             42     0.920   1.433   9.990   0.000  12.343     0.657
  In             43     0.906   1.440   9.989   0.000  12.336     0.664
  In             44     0.890   1.447   9.989   0.000  12.326     0.674
  In             45     0.893   1.444   9.989   0.000  12.326     0.674
  In             46     0.908   1.440   9.990   0.000  12.337     0.663
  In             47     0.900   1.443   9.989   0.000  12.332     0.668
  In             48     0.903   1.442   9.989   0.000  12.334     0.666
==========================================================================

                 Bond                   Population      Length (A)
======================================================================
              P 1  -- P 2                    0.50        2.27470
              P 35 -- In 35                  0.57        2.50381
              P 35 -- In 1                   0.58        2.50533
              P 35 -- In 2                   1.38        2.51024
              P 30 -- In 30                  0.57        2.51231
              P 16 -- In 29                  0.52        2.51620
              P 1  -- In 3                   1.23        2.51731
              P 33 -- In 33                  0.56        2.51734
              P 31 -- In 31                  0.56        2.51765
              P 36 -- In 14                  0.55        2.51823
              P 24 -- In 2                   0.60        2.51944
              P 32 -- In 32                  0.58        2.52316
              P 22 -- In 35                  0.57        2.52323
              P 29 -- In 29                  0.58        2.52402
              P 18 -- In 32                  0.56        2.52598
              P 47 -- In 13                  0.56        2.52760
              P 19 -- In 22                  0.56        2.52764
              P 22 -- In 22                  0.57        2.52800
              P 33 -- In 36                  0.58        2.52808
              P 33 -- In 35                  1.38        2.52822
              P 34 -- In 47                  0.57        2.52904
              P 15 -- In 18                  0.51        2.52922
              P 17 -- In 19                  0.56        2.52936
              P 26 -- In 16                  1.31        2.53116
              P 13 -- In 15                  1.33        2.53265
              P 29 -- In 31                  0.56        2.53338
              P 30 -- In 44                  0.57        2.53387
              P 36 -- In 36                  0.55        2.53411
              P 32 -- In 33                  0.57        2.53598
              P 45 -- In 48                  0.56        2.53600
              P 36 -- In 1                   1.39        2.53601
              P 27 -- In 30                  0.55        2.53632
              P 34 -- In 34                  0.56        2.53640
              P 14 -- In 4                   1.30        2.53642
              P 44 -- In 45                  0.56        2.53719
              P 31 -- In 34                  0.57        2.53785
              P 44 -- In 44                  0.57        2.53811
              P 20 -- In 21                  0.56        2.53821
              P 27 -- In 29                  1.40        2.53870
              P 21 -- In 24                  0.57        2.53911
              P 30 -- In 31                  1.36        2.53928
              P 28 -- In 41                  0.59        2.54139
              P 31 -- In 33                  1.38        2.54198
              P 48 -- In 26                  0.56        2.54202
              P 6  -- In 20                  0.55        2.54225
              P 2  -- In 40                  1.13        2.54257
              P 4  -- In 17                  0.51        2.54294
              P 43 -- In 46                  0.56        2.54307
              P 41 -- In 43                  0.56        2.54389
              P 24 -- In 24                  0.55        2.54401
              P 28 -- In 30                  1.39        2.54447
              P 24 -- In 37                  1.33        2.54482
              P 39 -- In 41                  1.32        2.54593
              P 46 -- In 11                  0.54        2.54634
              P 7  -- In 10                  0.55        2.54748
              P 34 -- In 36                  1.36        2.54831
              P 29 -- In 32                  1.37        2.54877
              P 19 -- In 19                  0.58        2.54879
              P 22 -- In 24                  1.37        2.54968
              P 8  -- In 9                   0.55        2.55031
              P 10 -- In 23                  0.55        2.55133
              P 18 -- In 18                  0.58        2.55140
              P 41 -- In 44                  1.35        2.55175
              P 32 -- In 22                  1.36        2.55195
              P 25 -- In 27                  1.27        2.55201
              P 5  -- In 7                   0.54        2.55408
              P 44 -- In 34                  1.35        2.55413
              P 27 -- In 27                  0.56        2.55536
              P 42 -- In 8                   0.55        2.55561
              P 41 -- In 41                  0.55        2.55610
              P 21 -- In 21                  0.57        2.55643
              P 9  -- In 12                  0.56        2.55653
              P 3  -- In 5                   1.29        2.55717
              P 37 -- In 37                  0.55        2.55791
              P 45 -- In 45                  0.56        2.55794
              P 16 -- In 18                  1.38        2.55898
              P 37 -- In 39                  1.20        2.55930
              P 47 -- In 47                  0.57        2.55949
              P 21 -- In 23                  1.33        2.55984
              P 11 -- In 25                  0.54        2.56157
              P 19 -- In 21                  1.33        2.56349
              P 47 -- In 14                  1.34        2.56351
              P 45 -- In 47                  1.34        2.56354
              P 18 -- In 19                  1.34        2.56401
              P 42 -- In 43                  1.33        2.56422
              P 43 -- In 45                  1.33        2.56444
              P 23 -- In 37                  0.57        2.56519
              P 38 -- In 38                  0.58        2.56529
              P 17 -- In 17                  0.57        2.56534
              P 23 -- In 38                  1.30        2.56632
              P 39 -- In 39                  0.56        2.56650
              P 48 -- In 48                  0.57        2.56720
              P 23 -- In 23                  0.56        2.56766
              P 43 -- In 43                  0.56        2.56851
              P 8  -- In 46                  1.32        2.56913
              P 3  -- In 6                   0.51        2.56970
              P 15 -- In 17                  1.37        2.57033
              P 39 -- In 42                  0.56        2.57075
              P 5  -- In 8                   1.32        2.57153
              P 17 -- In 20                  1.33        2.57162
              P 20 -- In 10                  1.32        2.57187
              P 46 -- In 48                  1.33        2.57190
              P 20 -- In 20                  0.57        2.57190
              P 28 -- In 28                  0.53        2.57212
              P 4  -- In 6                   1.35        2.57226
              P 7  -- In 9                   1.32        2.57269
              P 42 -- In 42                  0.55        2.57302
              P 9  -- In 11                  1.31        2.57322
              P 40 -- In 42                  1.28        2.57356
              P 10 -- In 12                  1.33        2.57405
              P 6  -- In 7                   1.33        2.57426
              P 38 -- In 28                  1.23        2.57431
              P 11 -- In 11                  0.57        2.57476
              P 48 -- In 13                  1.32        2.57478
              P 40 -- In 40                  0.55        2.57601
              P 6  -- In 6                   0.56        2.57643
              P 46 -- In 46                  0.56        2.57766
              P 2  -- In 2                   0.56        2.57982
              P 38 -- In 39                  0.52        2.58486
              P 11 -- In 26                  1.30        2.58552
              P 3  -- In 3                   0.54        2.58641
              P 14 -- In 14                  0.52        2.58699
              P 10 -- In 10                  0.56        2.58774
              P 13 -- In 13                  0.53        2.59051
              P 9  -- In 9                   0.56        2.59125
              P 8  -- In 8                   0.56        2.59162
              P 12 -- In 25                  1.28        2.59229
              P 15 -- In 15                  0.55        2.59338
              P 7  -- In 7                   0.56        2.59368
              P 40 -- In 5                   0.53        2.59532
              P 26 -- In 26                  0.54        2.59553
              P 4  -- In 4                   0.54        2.59596
              P 16 -- In 16                  0.55        2.59627
              P 1  -- In 1                   0.50        2.59975
              P 25 -- In 16                  0.55        2.60488
              P 12 -- In 38                  0.54        2.60681
              P 5  -- In 5                   0.55        2.60873
              P 37 -- In 40                  0.56        2.60933
              P 12 -- In 12                  0.54        2.62035
              P 26 -- In 15                  0.56        2.62088
              P 25 -- In 25                  0.53        2.62553
              P 13 -- In 4                   0.56        2.63909
              P 14 -- In 3                   0.56        2.65740
             In 27 -- In 28                 -0.45        2.98057
======================================================================

 Hirshfeld supercell size:           1           1           4
Standard grid dimensions: 250 250 180
Fine grid dimensions:     250 250 180


     Hirshfeld Analysis
     ------------------
Species   Ion     Hirshfeld Charge (e)
======================================
  P        1                -0.15
  P        2                -0.15
  P        3                -0.24
  P        4                -0.25
  P        5                -0.24
  P        6                -0.24
  P        7                -0.24
  P        8                -0.24
  P        9                -0.24
  P       10                -0.24
  P       11                -0.24
  P       12                -0.23
  P       13                -0.24
  P       14                -0.24
  P       15                -0.24
  P       16                -0.24
  P       17                -0.24
  P       18                -0.24
  P       19                -0.24
  P       20                -0.24
  P       21                -0.24
  P       22                -0.24
  P       23                -0.24
  P       24                -0.23
  P       25                -0.25
  P       26                -0.24
  P       27                -0.25
  P       28                -0.24
  P       29                -0.24
  P       30                -0.24
  P       31                -0.24
  P       32                -0.24
  P       33                -0.24
  P       34                -0.24
  P       35                -0.25
  P       36                -0.24
  P       37                -0.24
  P       38                -0.24
  P       39                -0.24
  P       40                -0.24
  P       41                -0.24
  P       42                -0.24
  P       43                -0.24
  P       44                -0.24
  P       45                -0.24
  P       46                -0.24
  P       47                -0.24
  P       48                -0.24
  In       1                 0.24
  In       2                 0.23
  In       3                 0.25
  In       4                 0.24
  In       5                 0.25
  In       6                 0.24
  In       7                 0.24
  In       8                 0.24
  In       9                 0.24
  In      10                 0.24
  In      11                 0.23
  In      12                 0.24
  In      13                 0.24
  In      14                 0.24
  In      15                 0.24
  In      16                 0.24
  In      17                 0.24
  In      18                 0.23
  In      19                 0.24
  In      20                 0.24
  In      21                 0.24
  In      22                 0.24
  In      23                 0.24
  In      24                 0.24
  In      25                 0.25
  In      26                 0.25
  In      27                 0.15
  In      28                 0.16
  In      29                 0.23
  In      30                 0.23
  In      31                 0.24
  In      32                 0.23
  In      33                 0.24
  In      34                 0.24
  In      35                 0.24
  In      36                 0.24
  In      37                 0.24
  In      38                 0.24
  In      39                 0.23
  In      40                 0.25
  In      41                 0.23
  In      42                 0.24
  In      43                 0.24
  In      44                 0.24
  In      45                 0.24
  In      46                 0.24
  In      47                 0.24
  In      48                 0.24
======================================

 
 A BibTeX formatted list of references used in this run has been written to 
 90deg_Singlepoints_6.bib
 
Initialisation time =     30.35 s
Calculation time    =   5729.88 s
Finalisation time   =     69.29 s
Total time          =   5829.51 s
Peak Memory Use     = 8608140 kB
 
Overall parallel efficiency rating: Terrible (33%)
 
Data was distributed by:-
G-vector (6-way); efficiency rating: Poor (35%)
k-point (20-way); efficiency rating: Very good (84%)
