 +-------------------------------------------------+
 |                                                 |
 |      CCC   AA    SSS  TTTTT  EEEEE  PPPP        |
 |     C     A  A  S       T    E      P   P       |
 |     C     AAAA   SS     T    EEE    PPPP        |
 |     C     A  A     S    T    E      P           |
 |      CCC  A  A  SSS     T    EEEEE  P           |
 |                                                 |
 +-------------------------------------------------+
 |                                                 |
 | Welcome to Academic Release CASTEP version 24.1 |
 | Ab Initio Total Energy Program                  |
 |                                                 |
 | Authors:                                        |
 | M. Segall, M. Probert, C. Pickard, P. Hasnip,   |
 | S. Clark, K. Refson, J. R. Yates,               |
 | A. Bartok-Partay, M. Payne                      |
 |                                                 |
 | Contributors:                                   |
 | P. Lindan, P. Haynes, J. White, V. Milman,      |
 | N. Govind, M. Gibson, P. Tulip, V. Cocula,      |
 | B. Montanari, D. Quigley, M. Glover,            |
 | L. Bernasconi, A. Perlov, M. Plummer,           |
 | E. McNellis, J. Meyer, J. Gale, D. Jochym       |
 | J. Aarons, B. Walker, R. Gillen, D. Jones       |
 | T. Green, I. J. Bush, C. J. Armstrong,          |
 | E. J. Higgins, E. L. Brown, M. S. McFly,        |
 | J. Wilkins, B-C. Shih, P. J. P. Byrne,          |
 | R. J. Maurer, J. C. Womack, J. Dziedzic,        |
 | L. LeBlanc, T. K. Stenczel, J. Kermode,         |
 | S. Sturniolo, B. Shi, B. Durham, M. Evans,      |
 | M. J. Smith, A. Tamerus, Z. Hawkhead,           |
 | V. Ravindran, T. Hollins, S. A. Joyce,          |
 | R. T. Strong, A. M. Reilly, S. J. Donaldson     |
 |                                                 |
 | Copyright (c) 2000 - 2023                       |
 |                                                 |
 |     Distributed under license from Cambridge    |
 |     Enterprise for academic use only.           |
 |                                                 |
 | Please cite                                     |
 |                                                 |
 |     "First principles methods using CASTEP"     |
 |                                                 |
 |         Zeitschrift fuer Kristallographie       |
 |           220(5-6) pp. 567-570 (2005)           |
 |                                                 |
 | S. J. Clark, M. D. Segall, C. J. Pickard,       |
 | P. J. Hasnip, M. J. Probert, K. Refson,         |
 | M. C. Payne                                     |
 |                                                 |
 |       in all publications arising from          |
 |              your use of CASTEP                 |
 |                                                 |
 +-------------------------------------------------+
 |                                                 |
 |              http://www.castep.org              |
 |                                                 |
 +-------------------------------------------------+



 Compiled for  GNU 11.2.0 on 04-04-2024 18:39:17
 from code version 6355fd106 Castep241_branch Thu Mar 7 17:56:19 2024 +0000
 Compiler: GNU Fortran 11.2.0; Optimisation: FAST
 Comms   : MPI VERSION : CRAY MPICH version 8.1.23.14 (ANL base 3.4a2)
 MATHLIBS: default (LAPACK version 3.10.1)
 FFT Lib : fftw3 version commercial-fftw-3.3.10-sse2-avx-avx2-avx2_128
 Fundamental constants values: CODATA 2018

 Run started: Tue, 29 Apr 2025 17:38:01 +0100

 Atomic calculation performed for P: 1s2 2s2 2p6 3s2 3p3

 Converged in 47 iterations to an ae energy of -9309.074 eV

   ============================================================                
   | Pseudopotential Report - Date of generation 29-04-2025   |                
   ------------------------------------------------------------                
   | Element: P Ionic charge:  5.00 Level of theory: RSCAN    |                
   | Atomic Solver: Koelling-Harmon                           |                
   |                                                          |                
   |               Reference Electronic Structure             |                
   |         Orbital         Occupation         Energy        |                
   |            3s              2.000           -0.535        |                
   |            3p              3.000           -0.209        |                
   |                                                          |                
   |                 Pseudopotential Definition               |                
   |        Beta     l      e      Rc     scheme   norm       |                
   |          1      0   -0.535   1.807     qc      0         |                
   |          2      0    0.250   1.807     qc      0         |                
   |          3      1   -0.209   1.807     qc      0         |                
   |          4      1    0.250   1.807     qc      0         |                
   |          5      2    0.000   1.807     qc      0         |                
   |          6      2    0.250   1.807     qc      0         |                
   |         loc     3    0.000   1.807     pn      0         |                
   |                                                          |                
   | Augmentation charge Rinner = 1.263                       |                
   | Partial core correction Rc = 1.263                       |                
   ------------------------------------------------------------                
   | "3|1.8|4|4|5|30:31:32"                                   |                
   ------------------------------------------------------------                
   |      Author: Chris J. Pickard, Cambridge University      |                
   ============================================================                
 Warning: otfg_output_psp cannot write out meta-GGA pseudopotentials presently.

 Atomic calculation performed for In:
 1s2 2s2 2p6 3s2 3p6 3d10 4s2 4p6 4d10 5s2 5p1

 Converged in 84 iterations to an ae energy of -160093.328 eV

   ============================================================                
   | Pseudopotential Report - Date of generation 29-04-2025   |                
   ------------------------------------------------------------                
   | Element: In Ionic charge: 13.00 Level of theory: RSCAN   |                
   | Atomic Solver: Koelling-Harmon                           |                
   |                                                          |                
   |               Reference Electronic Structure             |                
   |         Orbital         Occupation         Energy        |                
   |            4d             10.000           -0.711        |                
   |            5s              2.000           -0.313        |                
   |            5p              1.000           -0.095        |                
   |                                                          |                
   |                 Pseudopotential Definition               |                
   |        Beta     l      e      Rc     scheme   norm       |                
   |          1      0   -0.313   2.501     qc      0         |                
   |          2      0    0.250   2.501     qc      0         |                
   |          3      1   -0.095   2.501     qc      0         |                
   |          4      1    0.250   2.501     qc      0         |                
   |          5      2   -0.711   2.207     qc      0         |                
   |          6      2    0.250   2.207     qc      0         |                
   |         loc     3    0.000   2.501     pn      0         |                
   |                                                          |                
   | Augmentation charge Rinner = 1.504                       |                
   | Partial core correction Rc = 1.504                       |                
   ------------------------------------------------------------                
   | "3|2.5|2.5|1.5|7|8|9|50:51:42U2.2U2.2"                   |                
   ------------------------------------------------------------                
   |      Author: Chris J. Pickard, Cambridge University      |                
   ============================================================                
 Warning: otfg_output_psp cannot write out meta-GGA pseudopotentials presently.

 Pseudo atomic calculation performed for P 3s2 3p3

 Converged in 23 iterations to a total energy of -208.0292 eV

 Pseudo atomic calculation performed for In 4d10 5s2 5p1

 Converged in 42 iterations to a total energy of -1747.4501 eV
 Calculation parallelised over 120 processes.
 Data is distributed by G-vector(6-way) and k-point(20-way)
 Each process may use up to 16 threads.

 ************************************ Title ************************************
 

 ***************************** General Parameters ******************************
  
 output verbosity                               : normal  (1)
 write checkpoint data to                       : 90deg_Singlepoints_6.check
 type of calculation                            : single point energy
 stress calculation                             : off
 density difference calculation                 : off
 electron localisation func (ELF) calculation   : off
 Hirshfeld analysis                             : on
 polarisation (Berry phase) analysis            : off
 molecular orbital projected DOS                : off
 deltaSCF calculation                           : off
 unlimited duration calculation
 timing information                             : on
 memory usage estimate                          : on
 write extra output files                       : on
 write final potential to formatted file        : off
 write final density to formatted file          : off
 write BibTeX reference list                    : on
 write OTFG pseudopotential files               : on
 write electrostatic potential file             : on
 write bands file                               : on
 checkpoint writing                             : off
  
 output         length unit                     : A
 output           mass unit                     : amu
 output           time unit                     : ps
 output         charge unit                     : e
 output           spin unit                     : hbar/2
 output         energy unit                     : eV
 output          force unit                     : eV/A
 output       velocity unit                     : A/ps
 output       pressure unit                     : GPa
 output     inv_length unit                     : 1/A
 output      frequency unit                     : cm-1
 output force constant unit                     : eV/A**2
 output         volume unit                     : A**3
 output   IR intensity unit                     : (D/A)**2/amu
 output         dipole unit                     : D
 output         efield unit                     : eV/A/e
 output        entropy unit                     : J/mol/K
 output    efield chi2 unit                     : pm/V
  
 wavefunctions paging                           : none
 random number generator seed                   :  173801803
 data distribution                              : optimal for this architecture
 optimization strategy                          : balance speed and memory

 *********************** Exchange-Correlation Parameters ***********************
  
 using functional                               : RSCAN
 relativistic treatment                         : Koelling-Harmon
 DFT+D: Semi-empirical dispersion correction    : off

 ************************* Pseudopotential Parameters **************************
  
 pseudopotential representation                 : reciprocal space
 <beta|phi> representation                      : reciprocal space
 spin-orbit coupling                            : off

 **************************** Basis Set Parameters *****************************
  
 plane wave basis set cut-off                   :   900.0000   eV
 size of standard grid                          :     2.0000
 size of   fine   gmax                          :    30.7390   1/A
 finite basis set correction                    : none

 **************************** Electronic Parameters ****************************
  
 number of  electrons                           :  864.0    
 net charge of system                           :  0.000    
 treating system as non-spin-polarized
 number of bands                                :        518

 ********************* Electronic Minimization Parameters **********************
  
 Method: Treating system as metallic with density mixing treatment of electrons,
         and number of  SD  steps               :          1
         and number of  CG  steps               :          4
  
 total energy / atom convergence tol.           : 0.1000E-07   eV
 eigen-energy convergence tolerance             : 0.2222E-08   eV
 max force / atom convergence tol.              : ignored
 convergence tolerance window                   :          3   cycles
 max. number of SCF cycles                      :        100
 number of fixed-spin iterations                :         10
 smearing scheme                                : Gaussian
 smearing width                                 : 0.2000       eV
 Fermi energy convergence tolerance             : 0.2721E-13   eV
 periodic dipole correction                     : NONE

 ************************** Density Mixing Parameters **************************
  
 density-mixing scheme                          : Pulay
 max. length of mixing history                  :         20
 charge density mixing amplitude                : 0.5000    
 cut-off energy for mixing                      :  900.0       eV

 *********************** Population Analysis Parameters ************************
  
 Population analysis with cutoff                :  3.000       A
 Population analysis output                     : summary and pdos components

 *******************************************************************************
  

                           -------------------------------
                                      Unit Cell
                           -------------------------------
        Real Lattice(A)                      Reciprocal Lattice(1/A)
    14.4540490    20.4411120     0.0000000        0.217350353   0.153689910   0.000000000
    14.4540490   -20.4411120     0.0000000        0.217350353  -0.153689910   0.000000000
     0.0000000     0.0000000     4.1725250        0.000000000   0.000000000   1.505847252

                       Lattice parameters(A)       Cell Angles
                    a =     25.035147          alpha =   90.000000
                    b =     25.035147          beta  =   90.000000
                    c =      4.172525          gamma =  109.471220

                       Current cell volume =          2465.602056       A**3
                                   density =             2.838254   AMU/A**3
                                           =             4.713031     g/cm^3

                           -------------------------------
                                     Cell Contents
                           -------------------------------
                         Total number of ions in cell =   96
                      Total number of species in cell =    2
                        Max number of any one species =   48

            xxxxxxxxxxxxxxxxxxxxxxxxxxxxxxxxxxxxxxxxxxxxxxxxxxxxxxxxxxxx
            x  Element    Atom        Fractional coordinates of atoms  x
            x            Number           u          v          w      x
            x----------------------------------------------------------x
            x  P            1         0.274335   0.308337   0.144853   x 
            x  P            2         0.202156   0.234834   0.345646   x 
            x  P            3         0.379930   0.240310   0.535689   x 
            x  P            4         0.508172   0.364713   0.031796   x 
            x  P            5         0.410561   0.104570   0.016876   x 
            x  P            6         0.538366   0.227932   0.515373   x 
            x  P            7         0.572792   0.094435   0.010553   x 
            x  P            8         0.448254   0.971055   0.511601   x 
            x  P            9         0.609907   0.961017   0.509916   x 
            x  P           10         0.734956   0.085394   0.001428   x 
            x  P           11         0.642254   0.826661   0.010965   x 
            x  P           12         0.774524   0.952866   0.501807   x 
            x  P           13         0.533333   0.554882   0.033024   x 
            x  P           14         0.405841   0.428911   0.561471   x 
            x  P           15         0.633170   0.488357   0.522109   x 
            x  P           16         0.756917   0.610408   0.010127   x 
            x  P           17         0.664381   0.351976   0.009604   x 
            x  P           18         0.790032   0.476341   0.500936   x 
            x  P           19         0.822159   0.343344  -0.004193   x 
            x  P           20         0.698015   0.218105   0.504488   x 
            x  P           21         0.858667   0.212508   0.488417   x 
            x  P           22         0.981166   0.337044  -0.019048   x 
            x  P           23         0.898910   0.084583  -0.020847   x 
            x  P           24         0.021405   0.209867   0.471403   x 
            x  P           25         0.784159   0.800926   0.039410   x 
            x  P           26         0.658626   0.679143   0.519674   x 
            x  P           27         0.884076   0.725610   0.499379   x 
            x  P           28         0.004283   0.851253  -0.018681   x 
            x  P           29         0.917492   0.596938  -0.006587   x 
            x  P           30         0.043060   0.722757   0.481765   x 
            x  P           31         0.075056   0.593694  -0.016775   x 
            x  P           32         0.948914   0.466816   0.489100   x 
            x  P           33         0.106158   0.464404   0.474138   x 
            x  P           34         0.232171   0.587402   0.008395   x 
            x  P           35         0.137998   0.336763  -0.054608   x 
            x  P           36         0.263153   0.455710   0.537992   x 
            x  P           37         0.078051   0.099228  -0.060861   x 
            x  P           38         0.951378   0.969258   0.426286   x 
            x  P           39         0.125191   0.979907   0.472721   x 
            x  P           40         0.250378   0.109008  -0.036037   x 
            x  P           41         0.163986   0.850313  -0.014686   x 
            x  P           42         0.287294   0.976914   0.488625   x 
            x  P           43         0.324050   0.845061   0.001235   x 
            x  P           44         0.200484   0.719384   0.495911   x 
            x  P           45         0.357639   0.711154   0.512052   x 
            x  P           46         0.482669   0.836889   0.014728   x 
            x  P           47         0.388400   0.576121   0.027932   x 
            x  P           48         0.513865   0.701083   0.523669   x 
            x  In           1         0.239851   0.394011   0.040775   x 
            x  In           2         0.121997   0.276442   0.439646   x 
            x  In           3         0.339421   0.321767   0.620388   x 
            x  In           4         0.468096   0.447787   0.056959   x 
            x  In           5         0.354432   0.175611   0.026405   x 
            x  In           6         0.485511   0.300332   0.529275   x 
            x  In           7         0.515642   0.163890   0.014810   x 
            x  In           8         0.391050   0.040331   0.514430   x 
            x  In           9         0.553090   0.030665   0.510648   x 
            x  In          10         0.677410   0.154256   0.004753   x 
            x  In          11         0.587123   0.897055   0.010705   x 
            x  In          12         0.714870   0.021201   0.502383   x 
            x  In          13         0.491766   0.636704   0.025852   x 
            x  In          14         0.367235   0.512562   0.530067   x 
            x  In          15         0.594448   0.572336   0.531163   x 
            x  In          16         0.719039   0.695003   0.019171   x 
            x  In          17         0.612461   0.424657   0.022014   x 
            x  In          18         0.737056   0.547539   0.510051   x 
            x  In          19         0.767707   0.413138   0.000904   x 
            x  In          20         0.642624   0.288131   0.509372   x 
            x  In          21         0.801463   0.280178   0.495895   x 
            x  In          22         0.925362   0.404613  -0.010816   x 
            x  In          23         0.838306   0.149579  -0.011669   x 
            x  In          24         0.962063   0.274865   0.480632   x 
            x  In          25         0.747160   0.887282   0.004533   x 
            x  In          26         0.617802   0.761737   0.512483   x 
            x  In          27         0.845485   0.807395   0.544274   x 
            x  In          28         0.932647   0.903610  -0.081557   x 
            x  In          29         0.861539   0.664087  -0.001359   x 
            x  In          30         0.986813   0.789135   0.483560   x 
            x  In          31         0.019889   0.661341  -0.017830   x 
            x  In          32         0.893968   0.534939   0.493624   x 
            x  In          33         0.051099   0.532140   0.482496   x 
            x  In          34         0.178090   0.656887  -0.003697   x 
            x  In          35         0.082349   0.403253  -0.028872   x 
            x  In          36         0.209355   0.525265   0.509152   x 
            x  In          37         1.003250   0.148093  -0.028216   x 
            x  In          38         0.879002   0.021221   0.479703   x 
            x  In          39         0.055930   0.035712   0.443219   x 
            x  In          40         0.182753   0.165901  -0.121633   x 
            x  In          41         0.106590   0.917645  -0.025235   x 
            x  In          42         0.229371   0.044576   0.466292   x 
            x  In          43         0.267306   0.913610  -0.010777   x 
            x  In          44         0.145242   0.787885   0.486161   x 
            x  In          45         0.303769   0.781792   0.501631   x 
            x  In          46         0.427629   0.907433   0.011132   x 
            x  In          47         0.335699   0.647854   0.012921   x 
            x  In          48         0.461014   0.773054   0.515411   x 
            xxxxxxxxxxxxxxxxxxxxxxxxxxxxxxxxxxxxxxxxxxxxxxxxxxxxxxxxxxxx


                         No user defined ionic velocities

                           -------------------------------
                                   Details of Species
                           -------------------------------

                               Mass of species in AMU
                                    P   30.9737600
                                    In  114.8180000

                          Electric Quadrupole Moment (Barn)
                                    P    1.0000000 No Isotope Defined
                                    In    0.7700000 Isotope115

                          Files used for pseudopotentials:
                                    P 3|1.8|4|4|5|30:31:32
                                    In 3|2.5|2.5|1.5|7|8|9|50:51:42U2.2U2.2

                           -------------------------------
                              k-Points For BZ Sampling
                           -------------------------------
                       MP grid size for SCF calculation is  2  2  8
                            with an offset of   0.250  0.250  0.062
                       Number of kpoints used =            20

                           -------------------------------
                               Symmetry and Constraints
                           -------------------------------

                      Maximum deviation from symmetry =  0.00000         ANG

                      Number of symmetry operations   =           1
                      Number of ionic constraints     =           3
                      Point group of crystal =     1: C1, 1, 1
                      Space group of crystal =     1: P1, P 1

             Set iprint > 1 for details on symmetry rotations/translations

                         Centre of mass is constrained
             Set iprint > 1 for details of linear ionic constraints

                         Number of cell constraints= 0
                         Cell constraints are:  1 2 3 4 5 6

                         External pressure/stress (GPa)
                          0.00000   0.00000   0.00000
                                    0.00000   0.00000
                                              0.00000
 
+---------------- MEMORY AND SCRATCH DISK ESTIMATES PER PROCESS --------------+
|                                                     Memory          Disk    |
| Baseline code, static data and system overhead      368.0 MB         0.0 MB |
| BLAS internal memory storage                          0.0 MB         0.0 MB |
| Model and support data                             3663.9 MB         0.0 MB |
| Electronic energy minimisation requirements         956.3 MB         0.0 MB |
| Force calculation requirements                       70.0 MB         0.0 MB |
|                                               ----------------------------- |
| Approx. total storage required per process         4988.2 MB         0.0 MB |
|                                                                             |
| Requirements will fluctuate during execution and may exceed these estimates |
+-----------------------------------------------------------------------------+
Calculating approximate eigenstates for fixed initial Hamiltonian
Cut-off for approx. calculation is   89.988 eV
Improving approx. states at cut-off of  450.000 eV
Resetting cut-off to  900.000 eV
Calculating total energy with cut-off of  900.000 eV.
------------------------------------------------------------------------ <-- SCF
SCF loop      Energy           Fermi           Energy gain       Timer   <-- SCF
                               energy          per atom          (sec)   <-- SCF
------------------------------------------------------------------------ <-- SCF
Initial  -9.45681745E+004  0.00000000E+000                       386.39  <-- SCF
      1  -9.42030498E+004  3.10045027E+000  -3.80338217E+000     727.09  <-- SCF
      2  -9.42034993E+004  3.09991967E+000   4.68219899E-003     948.52  <-- SCF
      3  -9.43035206E+004  3.28069439E+000   1.04188911E+000    1201.48  <-- SCF
      4  -9.43213361E+004  3.33265254E+000   1.85578462E-001    1573.21  <-- SCF
      5  -9.43121612E+004  3.61869026E+000  -9.55718205E-002    1828.96  <-- SCF
      6  -9.43122162E+004  3.68747571E+000   5.72272601E-004    2080.76  <-- SCF
      7  -9.43119384E+004  3.72210277E+000  -2.89411272E-003    2350.76  <-- SCF
      8  -9.43141551E+004  3.72943428E+000   2.30913714E-002    2605.00  <-- SCF
      9  -9.43141769E+004  3.70752892E+000   2.26664781E-004    2867.72  <-- SCF
     10  -9.43141754E+004  3.71076545E+000  -1.55827549E-005    3141.10  <-- SCF
     11  -9.43141844E+004  3.70906910E+000   9.33848287E-005    3412.16  <-- SCF
     12  -9.43141861E+004  3.71411576E+000   1.77370326E-005    3682.86  <-- SCF
     13  -9.43141855E+004  3.71351874E+000  -5.50348333E-006    3950.08  <-- SCF
     14  -9.43141856E+004  3.71349782E+000   4.55076310E-007    4222.38  <-- SCF
     15  -9.43141856E+004  3.71350545E+000   1.07809721E-007    4456.88  <-- SCF
     16  -9.43141856E+004  3.71337451E+000   5.95406480E-008    4675.03  <-- SCF
     17  -9.43141856E+004  3.71344102E+000  -1.23725012E-008    4912.48  <-- SCF
     18  -9.43141856E+004  3.71346038E+000   2.19213405E-008    5115.36  <-- SCF
     19  -9.43141856E+004  3.71347604E+000   3.85833433E-009    5302.78  <-- SCF
     20  -9.43141856E+004  3.71347204E+000   1.28679890E-009    5487.19  <-- SCF
------------------------------------------------------------------------ <-- SCF
 
Final energy, E             =  -94314.12599907     eV
Final free energy (E-TS)    =  -94314.18558740     eV
(energies not corrected for finite basis set)
 
NB est. 0K energy (E-0.5TS)      =  -94314.15579324     eV
 

 ************************** Forces **************************
 *                                                          *
 *               Cartesian components (eV/A)                *
 * -------------------------------------------------------- *
 *                         x            y            z      *
 *                                                          *
 * P               1      0.04387     -0.00354      0.02755 *
 * P               2      0.03276      0.06525     -0.03149 *
 * P               3      0.03992     -0.02161      0.00139 *
 * P               4     -0.09818      0.00135     -0.01390 *
 * P               5      0.01857     -0.02902      0.02309 *
 * P               6     -0.04385     -0.02233      0.00785 *
 * P               7     -0.00791     -0.02324      0.00207 *
 * P               8      0.03373     -0.02640      0.00781 *
 * P               9     -0.00241     -0.05632      0.00236 *
 * P              10     -0.01829     -0.00359      0.00528 *
 * P              11     -0.06175     -0.10721      0.00025 *
 * P              12      0.01325      0.00366      0.01458 *
 * P              13     -0.11162      0.00291      0.02470 *
 * P              14      0.00335      0.02987      0.04705 *
 * P              15     -0.07576      0.02827     -0.00044 *
 * P              16     -0.02641      0.00376     -0.00552 *
 * P              17     -0.06151      0.00246      0.00280 *
 * P              18     -0.06923      0.02067      0.00428 *
 * P              19     -0.03335      0.01895      0.00654 *
 * P              20     -0.03647      0.02749      0.01066 *
 * P              21     -0.01964     -0.00249     -0.00123 *
 * P              22     -0.00486      0.02753      0.00940 *
 * P              23      0.01153     -0.04033     -0.01916 *
 * P              24     -0.01765     -0.00113      0.00072 *
 * P              25     -0.25441      0.07826      0.20506 *
 * P              26     -0.18025      0.01000      0.04195 *
 * P              27     -0.02610     -0.04369      0.00114 *
 * P              28      0.16367      0.07639      0.03764 *
 * P              29     -0.04384      0.01122      0.01462 *
 * P              30      0.03935      0.06987      0.00798 *
 * P              31      0.01096      0.05461     -0.00990 *
 * P              32     -0.00788      0.02731      0.00654 *
 * P              33      0.01277      0.03901     -0.01912 *
 * P              34      0.00941      0.02567     -0.00681 *
 * P              35     -0.00400     -0.00793      0.02036 *
 * P              36      0.00429      0.03954     -0.05405 *
 * P              37      0.11669      0.03231     -0.09095 *
 * P              38      0.22651      0.10480     -0.17442 *
 * P              39      0.10259      0.00883     -0.00852 *
 * P              40      0.06674     -0.00396     -0.00050 *
 * P              41      0.12809      0.08393     -0.00522 *
 * P              42      0.08136     -0.00306     -0.00620 *
 * P              43      0.03425      0.01719     -0.00808 *
 * P              44      0.03034      0.04396     -0.00623 *
 * P              45      0.00050      0.01160     -0.00278 *
 * P              46      0.00879     -0.00643      0.01038 *
 * P              47     -0.05049      0.02361      0.00698 *
 * P              48     -0.04695     -0.01876      0.00627 *
 * In              1     -0.02557     -0.02023      0.01202 *
 * In              2     -0.02335      0.01519     -0.00980 *
 * In              3     -0.04326     -0.01291     -0.00067 *
 * In              4      0.01974      0.03346     -0.03356 *
 * In              5     -0.05105      0.04477     -0.01970 *
 * In              6      0.07956      0.00969      0.01373 *
 * In              7      0.05113      0.03177     -0.00641 *
 * In              8     -0.03720      0.00562     -0.01564 *
 * In              9      0.00321      0.01669     -0.00515 *
 * In             10      0.01762     -0.01143     -0.00175 *
 * In             11     -0.01759      0.05111     -0.01021 *
 * In             12      0.01617      0.10345      0.00178 *
 * In             13      0.02943      0.01150     -0.01195 *
 * In             14     -0.02672     -0.07137      0.01348 *
 * In             15      0.05325     -0.01597      0.01546 *
 * In             16      0.11298     -0.07569      0.09201 *
 * In             17      0.07207     -0.01548     -0.00770 *
 * In             18      0.07834     -0.03529      0.00276 *
 * In             19      0.05871     -0.01965      0.00100 *
 * In             20      0.04917     -0.01433      0.00071 *
 * In             21      0.05250     -0.01960     -0.00580 *
 * In             22      0.03145     -0.03878     -0.00465 *
 * In             23      0.01814      0.07576     -0.01292 *
 * In             24      0.02309     -0.06973     -0.00855 *
 * In             25     -0.03355      0.21077      0.02889 *
 * In             26      0.03107      0.08981      0.00229 *
 * In             27      0.42278     -0.28406      0.20072 *
 * In             28     -0.25841      0.01783     -0.28535 *
 * In             29      0.16712     -0.06417      0.01836 *
 * In             30     -0.01427     -0.10977      0.00571 *
 * In             31     -0.01428     -0.07255      0.00138 *
 * In             32      0.06985     -0.06755     -0.00111 *
 * In             33      0.00084     -0.02564      0.00025 *
 * In             34     -0.02435     -0.05459      0.00563 *
 * In             35      0.00441     -0.06719      0.02611 *
 * In             36     -0.00655     -0.06738      0.00688 *
 * In             37     -0.02581      0.02282     -0.05117 *
 * In             38     -0.00961      0.13288     -0.04496 *
 * In             39     -0.14241     -0.04979     -0.07446 *
 * In             40     -0.05332     -0.01031      0.02314 *
 * In             41     -0.22189     -0.01378      0.00863 *
 * In             42     -0.11425     -0.03110      0.01676 *
 * In             43     -0.09456      0.00368      0.01303 *
 * In             44     -0.06754     -0.06484      0.00118 *
 * In             45     -0.04215     -0.03076      0.00749 *
 * In             46     -0.04767      0.01560     -0.00222 *
 * In             47      0.00802     -0.03209      0.00380 *
 * In             48     -0.00578      0.00433     -0.00229 *
 *                                                          *
 ************************************************************

 Pseudo atomic calculation performed for P 3s2 3p3

 Converged in 23 iterations to a total energy of -208.0292 eV

 Pseudo atomic calculation performed for In 4d10 5s2 5p1

 Converged in 42 iterations to a total energy of -1747.4501 eV
Charge spilling parameter for spin component 1 = 0.17%

            Orbital Populations       
     Ion    Atom   Orbital             Charge
  -------------------------------------------
      P     1      S                    1.737
      P     1      Px                   1.055
      P     1      Py                   1.361
      P     1      Pz                   1.326
      P     2      S                    1.748
      P     2      Px                   1.046
      P     2      Py                   1.361
      P     2      Pz                   1.320
      P     3      S                    1.746
      P     3      Px                   1.311
      P     3      Py                   1.302
      P     3      Pz                   1.306
      P     4      S                    1.740
      P     4      Px                   1.313
      P     4      Py                   1.320
      P     4      Pz                   1.299
      P     5      S                    1.744
      P     5      Px                   1.314
      P     5      Py                   1.298
      P     5      Pz                   1.308
      P     6      S                    1.739
      P     6      Px                   1.314
      P     6      Py                   1.306
      P     6      Pz                   1.310
      P     7      S                    1.741
      P     7      Px                   1.316
      P     7      Py                   1.302
      P     7      Pz                   1.310
      P     8      S                    1.741
      P     8      Px                   1.319
      P     8      Py                   1.302
      P     8      Pz                   1.307
      P     9      S                    1.742
      P     9      Px                   1.312
      P     9      Py                   1.303
      P     9      Pz                   1.310
      P    10      S                    1.742
      P    10      Px                   1.312
      P    10      Py                   1.305
      P    10      Pz                   1.311
      P    11      S                    1.742
      P    11      Px                   1.309
      P    11      Py                   1.308
      P    11      Pz                   1.303
      P    12      S                    1.752
      P    12      Px                   1.299
      P    12      Py                   1.305
      P    12      Pz                   1.303
      P    13      S                    1.740
      P    13      Px                   1.284
      P    13      Py                   1.314
      P    13      Pz                   1.329
      P    14      S                    1.746
      P    14      Px                   1.273
      P    14      Py                   1.319
      P    14      Pz                   1.326
      P    15      S                    1.738
      P    15      Px                   1.317
      P    15      Py                   1.321
      P    15      Pz                   1.299
      P    16      S                    1.736
      P    16      Px                   1.319
      P    16      Py                   1.320
      P    16      Pz                   1.301
      P    17      S                    1.737
      P    17      Px                   1.314
      P    17      Py                   1.313
      P    17      Pz                   1.307
      P    18      S                    1.734
      P    18      Px                   1.316
      P    18      Py                   1.316
      P    18      Pz                   1.307
      P    19      S                    1.734
      P    19      Px                   1.314
      P    19      Py                   1.318
      P    19      Pz                   1.310
      P    20      S                    1.738
      P    20      Px                   1.315
      P    20      Py                   1.308
      P    20      Pz                   1.310
      P    21      S                    1.735
      P    21      Px                   1.313
      P    21      Py                   1.313
      P    21      Pz                   1.312
      P    22      S                    1.729
      P    22      Px                   1.313
      P    22      Py                   1.325
      P    22      Pz                   1.311
      P    23      S                    1.740
      P    23      Px                   1.297
      P    23      Py                   1.310
      P    23      Pz                   1.319
      P    24      S                    1.731
      P    24      Px                   1.295
      P    24      Py                   1.316
      P    24      Pz                   1.330
      P    25      S                    1.750
      P    25      Px                   1.267
      P    25      Py                   1.301
      P    25      Pz                   1.312
      P    26      S                    1.739
      P    26      Px                   1.286
      P    26      Py                   1.311
      P    26      Pz                   1.333
      P    27      S                    1.729
      P    27      Px                   1.308
      P    27      Py                   1.328
      P    27      Pz                   1.312
      P    28      S                    1.735
      P    28      Px                   1.300
      P    28      Py                   1.322
      P    28      Pz                   1.301
      P    29      S                    1.729
      P    29      Px                   1.313
      P    29      Py                   1.325
      P    29      Pz                   1.310
      P    30      S                    1.727
      P    30      Px                   1.314
      P    30      Py                   1.332
      P    30      Pz                   1.306
      P    31      S                    1.728
      P    31      Px                   1.311
      P    31      Py                   1.334
      P    31      Pz                   1.305
      P    32      S                    1.730
      P    32      Px                   1.310
      P    32      Py                   1.328
      P    32      Pz                   1.310
      P    33      S                    1.726
      P    33      Px                   1.314
      P    33      Py                   1.333
      P    33      Pz                   1.306
      P    34      S                    1.731
      P    34      Px                   1.315
      P    34      Py                   1.323
      P    34      Pz                   1.305
      P    35      S                    1.720
      P    35      Px                   1.329
      P    35      Py                   1.324
      P    35      Pz                   1.306
      P    36      S                    1.729
      P    36      Px                   1.327
      P    36      Py                   1.320
      P    36      Pz                   1.289
      P    37      S                    1.750
      P    37      Px                   1.267
      P    37      Py                   1.317
      P    37      Pz                   1.324
      P    38      S                    1.758
      P    38      Px                   1.250
      P    38      Py                   1.306
      P    38      Pz                   1.303
      P    39      S                    1.738
      P    39      Px                   1.304
      P    39      Py                   1.318
      P    39      Pz                   1.310
      P    40      S                    1.747
      P    40      Px                   1.308
      P    40      Py                   1.299
      P    40      Pz                   1.309
      P    41      S                    1.735
      P    41      Px                   1.311
      P    41      Py                   1.322
      P    41      Pz                   1.305
      P    42      S                    1.739
      P    42      Px                   1.316
      P    42      Py                   1.305
      P    42      Pz                   1.311
      P    43      S                    1.737
      P    43      Px                   1.316
      P    43      Py                   1.313
      P    43      Pz                   1.305
      P    44      S                    1.732
      P    44      Px                   1.315
      P    44      Py                   1.322
      P    44      Pz                   1.306
      P    45      S                    1.736
      P    45      Px                   1.316
      P    45      Py                   1.315
      P    45      Pz                   1.304
      P    46      S                    1.740
      P    46      Px                   1.315
      P    46      Py                   1.309
      P    46      Pz                   1.305
      P    47      S                    1.734
      P    47      Px                   1.322
      P    47      Py                   1.314
      P    47      Pz                   1.299
      P    48      S                    1.737
      P    48      Px                   1.317
      P    48      Py                   1.313
      P    48      Pz                   1.302
     In     1      Dzz                  1.997
     In     1      Dzy                  1.998
     In     1      Dzx                  1.997
     In     1      Dxx-yy               1.998
     In     1      Dxy                  1.998
     In     1      S                    1.413
     In     1      Px                   0.497
     In     1      Py                   0.463
     In     1      Pz                   0.485
     In     1      S                   -0.499
     In     2      Dzz                  1.997
     In     2      Dzy                  1.998
     In     2      Dzx                  1.998
     In     2      Dxx-yy               1.997
     In     2      Dxy                  1.998
     In     2      S                    1.404
     In     2      Px                   0.493
     In     2      Py                   0.470
     In     2      Pz                   0.490
     In     2      S                   -0.510
     In     3      Dzz                  1.998
     In     3      Dzy                  1.998
     In     3      Dzx                  1.998
     In     3      Dxx-yy               1.998
     In     3      Dxy                  1.999
     In     3      S                    1.430
     In     3      Px                   0.461
     In     3      Py                   0.475
     In     3      Pz                   0.458
     In     3      S                   -0.481
     In     4      Dzz                  1.998
     In     4      Dzy                  1.998
     In     4      Dzx                  1.998
     In     4      Dxx-yy               1.998
     In     4      Dxy                  1.999
     In     4      S                    1.424
     In     4      Px                   0.472
     In     4      Py                   0.464
     In     4      Pz                   0.484
     In     4      S                   -0.513
     In     5      Dzz                  1.998
     In     5      Dzy                  1.999
     In     5      Dzx                  1.998
     In     5      Dxx-yy               1.998
     In     5      Dxy                  1.999
     In     5      S                    1.432
     In     5      Px                   0.482
     In     5      Py                   0.468
     In     5      Pz                   0.462
     In     5      S                   -0.502
     In     6      Dzz                  1.998
     In     6      Dzy                  1.999
     In     6      Dzx                  1.998
     In     6      Dxx-yy               1.998
     In     6      Dxy                  1.998
     In     6      S                    1.421
     In     6      Px                   0.481
     In     6      Py                   0.474
     In     6      Pz                   0.473
     In     6      S                   -0.497
     In     7      Dzz                  1.998
     In     7      Dzy                  1.999
     In     7      Dzx                  1.998
     In     7      Dxx-yy               1.997
     In     7      Dxy                  1.998
     In     7      S                    1.418
     In     7      Px                   0.485
     In     7      Py                   0.477
     In     7      Pz                   0.473
     In     7      S                   -0.507
     In     8      Dzz                  1.998
     In     8      Dzy                  1.999
     In     8      Dzx                  1.998
     In     8      Dxx-yy               1.997
     In     8      Dxy                  1.999
     In     8      S                    1.418
     In     8      Px                   0.484
     In     8      Py                   0.477
     In     8      Pz                   0.471
     In     8      S                   -0.508
     In     9      Dzz                  1.998
     In     9      Dzy                  1.998
     In     9      Dzx                  1.998
     In     9      Dxx-yy               1.997
     In     9      Dxy                  1.998
     In     9      S                    1.418
     In     9      Px                   0.483
     In     9      Py                   0.480
     In     9      Pz                   0.475
     In     9      S                   -0.503
     In    10      Dzz                  1.998
     In    10      Dzy                  1.999
     In    10      Dzx                  1.998
     In    10      Dxx-yy               1.997
     In    10      Dxy                  1.998
     In    10      S                    1.420
     In    10      Px                   0.485
     In    10      Py                   0.478
     In    10      Pz                   0.474
     In    10      S                   -0.509
     In    11      Dzz                  1.998
     In    11      Dzy                  1.999
     In    11      Dzx                  1.998
     In    11      Dxx-yy               1.997
     In    11      Dxy                  1.998
     In    11      S                    1.419
     In    11      Px                   0.487
     In    11      Py                   0.485
     In    11      Pz                   0.472
     In    11      S                   -0.504
     In    12      Dzz                  1.998
     In    12      Dzy                  1.999
     In    12      Dzx                  1.998
     In    12      Dxx-yy               1.998
     In    12      Dxy                  1.999
     In    12      S                    1.408
     In    12      Px                   0.483
     In    12      Py                   0.478
     In    12      Pz                   0.472
     In    12      S                   -0.496
     In    13      Dzz                  1.998
     In    13      Dzy                  1.999
     In    13      Dzx                  1.998
     In    13      Dxx-yy               1.998
     In    13      Dxy                  1.998
     In    13      S                    1.421
     In    13      Px                   0.489
     In    13      Py                   0.473
     In    13      Pz                   0.470
     In    13      S                   -0.511
     In    14      Dzz                  1.997
     In    14      Dzy                  1.999
     In    14      Dzx                  1.998
     In    14      Dxx-yy               1.998
     In    14      Dxy                  1.998
     In    14      S                    1.420
     In    14      Px                   0.491
     In    14      Py                   0.473
     In    14      Pz                   0.474
     In    14      S                   -0.515
     In    15      Dzz                  1.998
     In    15      Dzy                  1.998
     In    15      Dzx                  1.998
     In    15      Dxx-yy               1.998
     In    15      Dxy                  1.998
     In    15      S                    1.427
     In    15      Px                   0.473
     In    15      Py                   0.461
     In    15      Pz                   0.490
     In    15      S                   -0.523
     In    16      Dzz                  1.998
     In    16      Dzy                  1.998
     In    16      Dzx                  1.998
     In    16      Dxx-yy               1.998
     In    16      Dxy                  1.998
     In    16      S                    1.428
     In    16      Px                   0.472
     In    16      Py                   0.463
     In    16      Pz                   0.494
     In    16      S                   -0.503
     In    17      Dzz                  1.997
     In    17      Dzy                  1.998
     In    17      Dzx                  1.998
     In    17      Dxx-yy               1.997
     In    17      Dxy                  1.998
     In    17      S                    1.420
     In    17      Px                   0.487
     In    17      Py                   0.477
     In    17      Pz                   0.477
     In    17      S                   -0.518
     In    18      Dzz                  1.997
     In    18      Dzy                  1.998
     In    18      Dzx                  1.998
     In    18      Dxx-yy               1.997
     In    18      Dxy                  1.998
     In    18      S                    1.419
     In    18      Px                   0.489
     In    18      Py                   0.481
     In    18      Pz                   0.480
     In    18      S                   -0.530
     In    19      Dzz                  1.997
     In    19      Dzy                  1.998
     In    19      Dzx                  1.998
     In    19      Dxx-yy               1.997
     In    19      Dxy                  1.998
     In    19      S                    1.422
     In    19      Px                   0.490
     In    19      Py                   0.480
     In    19      Pz                   0.477
     In    19      S                   -0.535
     In    20      Dzz                  1.998
     In    20      Dzy                  1.999
     In    20      Dzx                  1.998
     In    20      Dxx-yy               1.997
     In    20      Dxy                  1.998
     In    20      S                    1.420
     In    20      Px                   0.487
     In    20      Py                   0.478
     In    20      Pz                   0.473
     In    20      S                   -0.516
     In    21      Dzz                  1.998
     In    21      Dzy                  1.998
     In    21      Dzx                  1.998
     In    21      Dxx-yy               1.997
     In    21      Dxy                  1.998
     In    21      S                    1.422
     In    21      Px                   0.487
     In    21      Py                   0.481
     In    21      Pz                   0.476
     In    21      S                   -0.527
     In    22      Dzz                  1.997
     In    22      Dzy                  1.998
     In    22      Dzx                  1.998
     In    22      Dxx-yy               1.997
     In    22      Dxy                  1.998
     In    22      S                    1.424
     In    22      Px                   0.493
     In    22      Py                   0.481
     In    22      Pz                   0.479
     In    22      S                   -0.545
     In    23      Dzz                  1.998
     In    23      Dzy                  1.998
     In    23      Dzx                  1.998
     In    23      Dxx-yy               1.997
     In    23      Dxy                  1.998
     In    23      S                    1.422
     In    23      Px                   0.485
     In    23      Py                   0.483
     In    23      Pz                   0.477
     In    23      S                   -0.523
     In    24      Dzz                  1.997
     In    24      Dzy                  1.998
     In    24      Dzx                  1.998
     In    24      Dxx-yy               1.997
     In    24      Dxy                  1.998
     In    24      S                    1.428
     In    24      Px                   0.487
     In    24      Py                   0.480
     In    24      Pz                   0.479
     In    24      S                   -0.546
     In    25      Dzz                  1.998
     In    25      Dzy                  1.999
     In    25      Dzx                  1.998
     In    25      Dxx-yy               1.998
     In    25      Dxy                  1.998
     In    25      S                    1.426
     In    25      Px                   0.491
     In    25      Py                   0.467
     In    25      Pz                   0.464
     In    25      S                   -0.488
     In    26      Dzz                  1.998
     In    26      Dzy                  1.999
     In    26      Dzx                  1.998
     In    26      Dxx-yy               1.998
     In    26      Dxy                  1.998
     In    26      S                    1.417
     In    26      Px                   0.487
     In    26      Py                   0.471
     In    26      Pz                   0.466
     In    26      S                   -0.496
     In    27      Dzz                  1.998
     In    27      Dzy                  1.998
     In    27      Dzx                  1.997
     In    27      Dxx-yy               1.998
     In    27      Dxy                  1.999
     In    27      S                    1.435
     In    27      Px                   0.598
     In    27      Py                   0.457
     In    27      Pz                   0.484
     In    27      S                   -0.433
     In    28      Dzz                  1.998
     In    28      Dzy                  1.998
     In    28      Dzx                  1.997
     In    28      Dxx-yy               1.998
     In    28      Dxy                  1.999
     In    28      S                    1.434
     In    28      Px                   0.567
     In    28      Py                   0.464
     In    28      Pz                   0.481
     In    28      S                   -0.425
     In    29      Dzz                  1.997
     In    29      Dzy                  1.998
     In    29      Dzx                  1.997
     In    29      Dxx-yy               1.997
     In    29      Dxy                  1.998
     In    29      S                    1.415
     In    29      Px                   0.490
     In    29      Py                   0.485
     In    29      Pz                   0.490
     In    29      S                   -0.535
     In    30      Dzz                  1.997
     In    30      Dzy                  1.998
     In    30      Dzx                  1.998
     In    30      Dxx-yy               1.997
     In    30      Dxy                  1.998
     In    30      S                    1.416
     In    30      Px                   0.492
     In    30      Py                   0.474
     In    30      Pz                   0.485
     In    30      S                   -0.555
     In    31      Dzz                  1.997
     In    31      Dzy                  1.998
     In    31      Dzx                  1.997
     In    31      Dxx-yy               1.997
     In    31      Dxy                  1.998
     In    31      S                    1.428
     In    31      Px                   0.490
     In    31      Py                   0.479
     In    31      Pz                   0.483
     In    31      S                   -0.551
     In    32      Dzz                  1.997
     In    32      Dzy                  1.998
     In    32      Dzx                  1.997
     In    32      Dxx-yy               1.997
     In    32      Dxy                  1.998
     In    32      S                    1.422
     In    32      Px                   0.491
     In    32      Py                   0.483
     In    32      Pz                   0.483
     In    32      S                   -0.554
     In    33      Dzz                  1.997
     In    33      Dzy                  1.998
     In    33      Dzx                  1.997
     In    33      Dxx-yy               1.997
     In    33      Dxy                  1.998
     In    33      S                    1.422
     In    33      Px                   0.491
     In    33      Py                   0.480
     In    33      Pz                   0.482
     In    33      S                   -0.551
     In    34      Dzz                  1.997
     In    34      Dzy                  1.998
     In    34      Dzx                  1.998
     In    34      Dxx-yy               1.997
     In    34      Dxy                  1.998
     In    34      S                    1.426
     In    34      Px                   0.490
     In    34      Py                   0.479
     In    34      Pz                   0.478
     In    34      S                   -0.546
     In    35      Dzz                  1.997
     In    35      Dzy                  1.998
     In    35      Dzx                  1.997
     In    35      Dxx-yy               1.996
     In    35      Dxy                  1.998
     In    35      S                    1.432
     In    35      Px                   0.494
     In    35      Py                   0.478
     In    35      Pz                   0.483
     In    35      S                   -0.567
     In    36      Dzz                  1.997
     In    36      Dzy                  1.998
     In    36      Dzx                  1.997
     In    36      Dxx-yy               1.997
     In    36      Dxy                  1.998
     In    36      S                    1.431
     In    36      Px                   0.490
     In    36      Py                   0.478
     In    36      Pz                   0.480
     In    36      S                   -0.550
     In    37      Dzz                  1.997
     In    37      Dzy                  1.998
     In    37      Dzx                  1.998
     In    37      Dxx-yy               1.997
     In    37      Dxy                  1.998
     In    37      S                    1.421
     In    37      Px                   0.481
     In    37      Py                   0.481
     In    37      Pz                   0.477
     In    37      S                   -0.520
     In    38      Dzz                  1.998
     In    38      Dzy                  1.999
     In    38      Dzx                  1.998
     In    38      Dxx-yy               1.997
     In    38      Dxy                  1.999
     In    38      S                    1.422
     In    38      Px                   0.475
     In    38      Py                   0.486
     In    38      Pz                   0.475
     In    38      S                   -0.506
     In    39      Dzz                  1.998
     In    39      Dzy                  1.998
     In    39      Dzx                  1.998
     In    39      Dxx-yy               1.997
     In    39      Dxy                  1.998
     In    39      S                    1.439
     In    39      Px                   0.487
     In    39      Py                   0.483
     In    39      Pz                   0.472
     In    39      S                   -0.476
     In    40      Dzz                  1.998
     In    40      Dzy                  1.999
     In    40      Dzx                  1.998
     In    40      Dxx-yy               1.997
     In    40      Dxy                  1.999
     In    40      S                    1.439
     In    40      Px                   0.472
     In    40      Py                   0.487
     In    40      Pz                   0.440
     In    40      S                   -0.484
     In    41      Dzz                  1.997
     In    41      Dzy                  1.998
     In    41      Dzx                  1.998
     In    41      Dxx-yy               1.997
     In    41      Dxy                  1.998
     In    41      S                    1.429
     In    41      Px                   0.494
     In    41      Py                   0.475
     In    41      Pz                   0.477
     In    41      S                   -0.541
     In    42      Dzz                  1.998
     In    42      Dzy                  1.999
     In    42      Dzx                  1.998
     In    42      Dxx-yy               1.997
     In    42      Dxy                  1.999
     In    42      S                    1.429
     In    42      Px                   0.484
     In    42      Py                   0.481
     In    42      Pz                   0.467
     In    42      S                   -0.509
     In    43      Dzz                  1.998
     In    43      Dzy                  1.998
     In    43      Dzx                  1.998
     In    43      Dxx-yy               1.997
     In    43      Dxy                  1.998
     In    43      S                    1.426
     In    43      Px                   0.490
     In    43      Py                   0.478
     In    43      Pz                   0.472
     In    43      S                   -0.519
     In    44      Dzz                  1.997
     In    44      Dzy                  1.998
     In    44      Dzx                  1.998
     In    44      Dxx-yy               1.997
     In    44      Dxy                  1.998
     In    44      S                    1.429
     In    44      Px                   0.490
     In    44      Py                   0.479
     In    44      Pz                   0.478
     In    44      S                   -0.539
     In    45      Dzz                  1.997
     In    45      Dzy                  1.998
     In    45      Dzx                  1.998
     In    45      Dxx-yy               1.997
     In    45      Dxy                  1.998
     In    45      S                    1.424
     In    45      Px                   0.490
     In    45      Py                   0.479
     In    45      Pz                   0.475
     In    45      S                   -0.531
     In    46      Dzz                  1.998
     In    46      Dzy                  1.998
     In    46      Dzx                  1.998
     In    46      Dxx-yy               1.997
     In    46      Dxy                  1.998
     In    46      S                    1.419
     In    46      Px                   0.487
     In    46      Py                   0.479
     In    46      Pz                   0.474
     In    46      S                   -0.512
     In    47      Dzz                  1.997
     In    47      Dzy                  1.998
     In    47      Dzx                  1.998
     In    47      Dxx-yy               1.997
     In    47      Dxy                  1.998
     In    47      S                    1.427
     In    47      Px                   0.491
     In    47      Py                   0.477
     In    47      Pz                   0.475
     In    47      S                   -0.528
     In    48      Dzz                  1.998
     In    48      Dzy                  1.998
     In    48      Dzx                  1.998
     In    48      Dxx-yy               1.997
     In    48      Dxy                  1.998
     In    48      S                    1.421
     In    48      Px                   0.490
     In    48      Py                   0.480
     In    48      Pz                   0.472
     In    48      S                   -0.519
  -------------------------------------------
                           Total:     864.000
  -------------------------------------------

     Atomic Populations (Mulliken)
     -----------------------------
Species          Ion     s       p       d       f      Total   Charge (e)
==========================================================================
  P               1     1.737   3.742   0.000   0.000   5.479    -0.479
  P               2     1.748   3.727   0.000   0.000   5.475    -0.475
  P               3     1.746   3.920   0.000   0.000   5.666    -0.666
  P               4     1.740   3.932   0.000   0.000   5.673    -0.673
  P               5     1.744   3.920   0.000   0.000   5.664    -0.664
  P               6     1.739   3.930   0.000   0.000   5.670    -0.670
  P               7     1.741   3.928   0.000   0.000   5.669    -0.669
  P               8     1.741   3.927   0.000   0.000   5.668    -0.668
  P               9     1.742   3.925   0.000   0.000   5.668    -0.668
  P              10     1.742   3.927   0.000   0.000   5.669    -0.669
  P              11     1.742   3.920   0.000   0.000   5.662    -0.662
  P              12     1.752   3.907   0.000   0.000   5.658    -0.658
  P              13     1.740   3.928   0.000   0.000   5.668    -0.668
  P              14     1.746   3.918   0.000   0.000   5.664    -0.664
  P              15     1.738   3.937   0.000   0.000   5.675    -0.675
  P              16     1.736   3.939   0.000   0.000   5.676    -0.676
  P              17     1.737   3.935   0.000   0.000   5.672    -0.672
  P              18     1.734   3.939   0.000   0.000   5.673    -0.673
  P              19     1.734   3.942   0.000   0.000   5.675    -0.675
  P              20     1.738   3.933   0.000   0.000   5.671    -0.671
  P              21     1.735   3.939   0.000   0.000   5.674    -0.674
  P              22     1.729   3.949   0.000   0.000   5.678    -0.678
  P              23     1.740   3.926   0.000   0.000   5.666    -0.666
  P              24     1.731   3.941   0.000   0.000   5.672    -0.672
  P              25     1.750   3.880   0.000   0.000   5.630    -0.630
  P              26     1.739   3.930   0.000   0.000   5.669    -0.669
  P              27     1.729   3.948   0.000   0.000   5.677    -0.677
  P              28     1.735   3.923   0.000   0.000   5.658    -0.658
  P              29     1.729   3.948   0.000   0.000   5.678    -0.678
  P              30     1.727   3.952   0.000   0.000   5.679    -0.679
  P              31     1.728   3.951   0.000   0.000   5.679    -0.679
  P              32     1.730   3.948   0.000   0.000   5.678    -0.678
  P              33     1.726   3.952   0.000   0.000   5.678    -0.678
  P              34     1.731   3.943   0.000   0.000   5.674    -0.674
  P              35     1.720   3.958   0.000   0.000   5.679    -0.679
  P              36     1.729   3.936   0.000   0.000   5.665    -0.665
  P              37     1.750   3.907   0.000   0.000   5.658    -0.658
  P              38     1.758   3.859   0.000   0.000   5.617    -0.617
  P              39     1.738   3.932   0.000   0.000   5.670    -0.670
  P              40     1.747   3.916   0.000   0.000   5.663    -0.663
  P              41     1.735   3.938   0.000   0.000   5.673    -0.673
  P              42     1.739   3.931   0.000   0.000   5.670    -0.670
  P              43     1.737   3.934   0.000   0.000   5.671    -0.671
  P              44     1.732   3.943   0.000   0.000   5.675    -0.675
  P              45     1.736   3.935   0.000   0.000   5.671    -0.671
  P              46     1.740   3.929   0.000   0.000   5.669    -0.669
  P              47     1.734   3.936   0.000   0.000   5.670    -0.670
  P              48     1.737   3.931   0.000   0.000   5.668    -0.668
  In              1     0.914   1.445   9.988   0.000  12.347     0.653
  In              2     0.894   1.453   9.988   0.000  12.336     0.664
  In              3     0.949   1.394   9.991   0.000  12.335     0.665
  In              4     0.911   1.420   9.990   0.000  12.321     0.679
  In              5     0.930   1.412   9.991   0.000  12.333     0.667
  In              6     0.925   1.429   9.990   0.000  12.343     0.657
  In              7     0.911   1.434   9.990   0.000  12.335     0.665
  In              8     0.911   1.433   9.990   0.000  12.333     0.667
  In              9     0.915   1.438   9.990   0.000  12.343     0.657
  In             10     0.911   1.437   9.990   0.000  12.338     0.662
  In             11     0.915   1.443   9.990   0.000  12.348     0.652
  In             12     0.912   1.433   9.991   0.000  12.335     0.665
  In             13     0.910   1.432   9.990   0.000  12.332     0.668
  In             14     0.905   1.438   9.989   0.000  12.333     0.667
  In             15     0.904   1.424   9.990   0.000  12.317     0.683
  In             16     0.925   1.430   9.989   0.000  12.344     0.656
  In             17     0.902   1.441   9.989   0.000  12.333     0.667
  In             18     0.889   1.450   9.989   0.000  12.328     0.672
  In             19     0.887   1.447   9.989   0.000  12.322     0.678
  In             20     0.903   1.438   9.990   0.000  12.331     0.669
  In             21     0.895   1.444   9.989   0.000  12.329     0.671
  In             22     0.879   1.454   9.988   0.000  12.321     0.679
  In             23     0.900   1.445   9.989   0.000  12.334     0.666
  In             24     0.882   1.446   9.989   0.000  12.317     0.683
  In             25     0.939   1.422   9.991   0.000  12.351     0.649
  In             26     0.921   1.424   9.990   0.000  12.335     0.665
  In             27     1.002   1.538   9.989   0.000  12.530     0.470
  In             28     1.010   1.511   9.990   0.000  12.511     0.489
  In             29     0.880   1.465   9.988   0.000  12.333     0.667
  In             30     0.861   1.451   9.988   0.000  12.300     0.700
  In             31     0.876   1.452   9.988   0.000  12.316     0.684
  In             32     0.869   1.457   9.988   0.000  12.314     0.686
  In             33     0.871   1.453   9.988   0.000  12.313     0.687
  In             34     0.880   1.447   9.989   0.000  12.316     0.684
  In             35     0.865   1.456   9.988   0.000  12.308     0.692
  In             36     0.881   1.449   9.988   0.000  12.318     0.682
  In             37     0.901   1.439   9.989   0.000  12.329     0.671
  In             38     0.916   1.436   9.990   0.000  12.342     0.658
  In             39     0.963   1.442   9.990   0.000  12.395     0.605
  In             40     0.955   1.399   9.991   0.000  12.345     0.655
  In             41     0.889   1.446   9.989   0.000  12.324     0.676
  In             42     0.920   1.433   9.990   0.000  12.343     0.657
  In             43     0.907   1.440   9.989   0.000  12.336     0.664
  In             44     0.890   1.447   9.989   0.000  12.325     0.675
  In             45     0.893   1.444   9.989   0.000  12.326     0.674
  In             46     0.907   1.440   9.990   0.000  12.337     0.663
  In             47     0.899   1.443   9.989   0.000  12.331     0.669
  In             48     0.902   1.442   9.989   0.000  12.334     0.666
==========================================================================

                 Bond                   Population      Length (A)
======================================================================
              P 1  -- P 2                    0.50        2.26640
              P 35 -- In 35                  0.57        2.50389
              P 35 -- In 1                   0.58        2.50561
              P 35 -- In 2                   1.38        2.50813
              P 30 -- In 30                  0.57        2.51086
              P 16 -- In 29                  0.52        2.51437
              P 31 -- In 31                  0.56        2.51694
              P 33 -- In 33                  0.57        2.51698
              P 24 -- In 2                   0.60        2.51780
              P 1  -- In 3                   1.22        2.51791
              P 36 -- In 14                  0.55        2.51875
              P 29 -- In 29                  0.58        2.52164
              P 32 -- In 32                  0.58        2.52296
              P 22 -- In 35                  0.57        2.52323
              P 18 -- In 32                  0.56        2.52565
              P 47 -- In 13                  0.56        2.52596
              P 19 -- In 22                  0.56        2.52725
              P 26 -- In 16                  1.31        2.52756
              P 22 -- In 22                  0.57        2.52783
              P 33 -- In 35                  1.38        2.52802
              P 15 -- In 18                  0.52        2.52842
              P 33 -- In 36                  0.58        2.52850
              P 34 -- In 47                  0.57        2.52851
              P 17 -- In 19                  0.56        2.52916
              P 13 -- In 15                  1.33        2.53109
              P 29 -- In 31                  0.56        2.53336
              P 27 -- In 30                  0.55        2.53415
              P 30 -- In 44                  0.57        2.53422
              P 36 -- In 36                  0.55        2.53461
              P 45 -- In 48                  0.56        2.53491
              P 36 -- In 1                   1.39        2.53567
              P 32 -- In 33                  0.57        2.53588
              P 34 -- In 34                  0.56        2.53612
              P 44 -- In 45                  0.56        2.53662
              P 14 -- In 4                   1.29        2.53687
              P 44 -- In 44                  0.57        2.53702
              P 31 -- In 34                  0.57        2.53751
              P 20 -- In 21                  0.56        2.53780
              P 21 -- In 24                  0.57        2.53863
              P 48 -- In 26                  0.56        2.53864
              P 27 -- In 29                  1.39        2.53987
              P 30 -- In 31                  1.36        2.53997
              P 2  -- In 40                  1.13        2.54102
              P 31 -- In 33                  1.37        2.54127
              P 4  -- In 17                  0.51        2.54132
              P 6  -- In 20                  0.55        2.54208
              P 43 -- In 46                  0.56        2.54259
              P 24 -- In 24                  0.54        2.54324
              P 41 -- In 43                  0.56        2.54353
              P 28 -- In 30                  1.39        2.54359
              P 24 -- In 37                  1.33        2.54471
              P 27 -- In 27                  0.57        2.54549
              P 39 -- In 41                  1.33        2.54550
              P 46 -- In 11                  0.54        2.54589
              P 28 -- In 41                  0.58        2.54664
              P 25 -- In 27                  1.28        2.54674
              P 7  -- In 10                  0.55        2.54723
              P 34 -- In 36                  1.36        2.54817
              P 29 -- In 32                  1.37        2.54861
              P 19 -- In 19                  0.58        2.54948
              P 22 -- In 24                  1.37        2.55001
              P 8  -- In 9                   0.55        2.55036
              P 10 -- In 23                  0.55        2.55104
              P 32 -- In 22                  1.36        2.55179
              P 41 -- In 44                  1.34        2.55179
              P 18 -- In 18                  0.58        2.55215
              P 5  -- In 7                   0.54        2.55376
              P 41 -- In 41                  0.55        2.55400
              P 44 -- In 34                  1.35        2.55406
              P 37 -- In 39                  1.20        2.55536
              P 42 -- In 8                   0.55        2.55541
              P 3  -- In 5                   1.29        2.55620
              P 9  -- In 12                  0.56        2.55672
              P 45 -- In 45                  0.56        2.55696
              P 21 -- In 21                  0.57        2.55721
              P 11 -- In 25                  0.54        2.55820
              P 37 -- In 37                  0.55        2.55916
              P 47 -- In 47                  0.57        2.55917
              P 16 -- In 18                  1.38        2.56007
              P 21 -- In 23                  1.33        2.56075
              P 47 -- In 14                  1.34        2.56242
              P 45 -- In 47                  1.34        2.56323
              P 28 -- In 28                  0.54        2.56330
              P 19 -- In 21                  1.33        2.56397
              P 42 -- In 43                  1.33        2.56427
              P 43 -- In 45                  1.33        2.56440
              P 18 -- In 19                  1.34        2.56484
              P 17 -- In 17                  0.57        2.56514
              P 23 -- In 38                  1.30        2.56525
              P 23 -- In 37                  0.57        2.56584
              P 48 -- In 48                  0.57        2.56665
              P 39 -- In 39                  0.56        2.56685
              P 43 -- In 43                  0.56        2.56729
              P 38 -- In 38                  0.57        2.56839
              P 23 -- In 23                  0.56        2.56848
              P 3  -- In 6                   0.51        2.56854
              P 8  -- In 46                  1.32        2.56898
              P 39 -- In 42                  0.56        2.57085
              P 46 -- In 48                  1.33        2.57118
              P 5  -- In 8                   1.32        2.57125
              P 15 -- In 17                  1.37        2.57131
              P 20 -- In 20                  0.57        2.57245
              P 7  -- In 9                   1.32        2.57253
              P 42 -- In 42                  0.55        2.57265
              P 4  -- In 6                   1.35        2.57270
              P 9  -- In 11                  1.32        2.57281
              P 20 -- In 10                  1.32        2.57282
              P 17 -- In 20                  1.33        2.57284
              P 48 -- In 13                  1.32        2.57369
              P 38 -- In 28                  1.24        2.57375
              P 40 -- In 42                  1.28        2.57392
              P 6  -- In 7                   1.33        2.57465
              P 40 -- In 40                  0.55        2.57491
              P 11 -- In 11                  0.57        2.57534
              P 10 -- In 12                  1.33        2.57540
              P 6  -- In 6                   0.56        2.57657
              P 46 -- In 46                  0.56        2.57689
              P 2  -- In 2                   0.55        2.58064
              P 11 -- In 26                  1.30        2.58444
              P 14 -- In 14                  0.52        2.58581
              P 3  -- In 3                   0.53        2.58665
              P 13 -- In 13                  0.53        2.58862
              P 10 -- In 10                  0.56        2.58914
              P 8  -- In 8                   0.56        2.59130
              P 9  -- In 9                   0.56        2.59174
              P 15 -- In 15                  0.55        2.59232
              P 12 -- In 25                  1.28        2.59238
              P 38 -- In 39                  0.50        2.59247
              P 16 -- In 16                  0.55        2.59321
              P 7  -- In 7                   0.56        2.59410
              P 26 -- In 26                  0.54        2.59421
              P 4  -- In 4                   0.54        2.59504
              P 40 -- In 5                   0.52        2.59584
              P 1  -- In 1                   0.50        2.60171
              P 12 -- In 38                  0.54        2.60660
              P 37 -- In 40                  0.56        2.60853
              P 5  -- In 5                   0.55        2.60871
              P 25 -- In 16                  0.54        2.61054
              P 12 -- In 12                  0.54        2.61925
              P 26 -- In 15                  0.56        2.62099
              P 25 -- In 25                  0.53        2.62453
              P 13 -- In 4                   0.56        2.63563
              P 14 -- In 3                   0.55        2.65464
======================================================================

 Hirshfeld supercell size:           1           1           4
Standard grid dimensions: 250 250 180
Fine grid dimensions:     250 250 180


     Hirshfeld Analysis
     ------------------
Species   Ion     Hirshfeld Charge (e)
======================================
  P        1                -0.15
  P        2                -0.15
  P        3                -0.24
  P        4                -0.25
  P        5                -0.24
  P        6                -0.24
  P        7                -0.24
  P        8                -0.24
  P        9                -0.24
  P       10                -0.24
  P       11                -0.24
  P       12                -0.23
  P       13                -0.24
  P       14                -0.24
  P       15                -0.24
  P       16                -0.24
  P       17                -0.24
  P       18                -0.24
  P       19                -0.24
  P       20                -0.24
  P       21                -0.24
  P       22                -0.24
  P       23                -0.24
  P       24                -0.23
  P       25                -0.24
  P       26                -0.24
  P       27                -0.25
  P       28                -0.24
  P       29                -0.24
  P       30                -0.24
  P       31                -0.24
  P       32                -0.24
  P       33                -0.24
  P       34                -0.24
  P       35                -0.25
  P       36                -0.24
  P       37                -0.24
  P       38                -0.24
  P       39                -0.24
  P       40                -0.24
  P       41                -0.24
  P       42                -0.24
  P       43                -0.24
  P       44                -0.24
  P       45                -0.24
  P       46                -0.24
  P       47                -0.24
  P       48                -0.24
  In       1                 0.24
  In       2                 0.24
  In       3                 0.25
  In       4                 0.24
  In       5                 0.25
  In       6                 0.24
  In       7                 0.24
  In       8                 0.24
  In       9                 0.24
  In      10                 0.24
  In      11                 0.23
  In      12                 0.24
  In      13                 0.24
  In      14                 0.24
  In      15                 0.24
  In      16                 0.23
  In      17                 0.24
  In      18                 0.23
  In      19                 0.24
  In      20                 0.24
  In      21                 0.24
  In      22                 0.24
  In      23                 0.24
  In      24                 0.24
  In      25                 0.25
  In      26                 0.25
  In      27                 0.15
  In      28                 0.16
  In      29                 0.23
  In      30                 0.23
  In      31                 0.24
  In      32                 0.23
  In      33                 0.24
  In      34                 0.24
  In      35                 0.24
  In      36                 0.24
  In      37                 0.24
  In      38                 0.24
  In      39                 0.23
  In      40                 0.24
  In      41                 0.24
  In      42                 0.24
  In      43                 0.24
  In      44                 0.24
  In      45                 0.24
  In      46                 0.24
  In      47                 0.24
  In      48                 0.24
======================================

 
 A BibTeX formatted list of references used in this run has been written to 
 90deg_Singlepoints_6.bib
 
Initialisation time =     30.40 s
Calculation time    =   5664.72 s
Finalisation time   =     64.42 s
Total time          =   5759.53 s
Peak Memory Use     = 8571304 kB
 
Overall parallel efficiency rating: Terrible (33%)
 
Data was distributed by:-
G-vector (6-way); efficiency rating: Poor (35%)
k-point (20-way); efficiency rating: Very good (85%)
