65
Lattice="11.80255 0.0 0.0 0.0 11.80255 0.0 0.0 0.0 11.80255" Properties=species:S:1:pos:R:3:mulliken_charges:R:1 fermi_energy=4.781312370495001 core_to_fermi_energy=16.851734769525017 config_type=Interstitial energy=-64625.87832615883 pbc="T T T"
P        1.47531875       1.47531875       4.46029705      -0.63200000
P        4.46029705       1.47531875       1.47531875      -0.63200000
P        1.47531875       4.46029705       1.47531875      -0.63200000
P        4.42355010       4.42355010       4.42355010      -0.67300000
P        1.47531875       1.47531875      10.29289045      -0.63200000
P        4.43513942       1.47531875       7.37659375      -0.67100000
P        1.47531875       4.43513942       7.37659375      -0.67100000
P        4.54907504       4.54907504      10.20411246      -0.67000000
P        1.47531875       7.37659375       4.43513942      -0.67100000
P        4.43513942       7.37659375       1.47531875      -0.67100000
P        1.47531875      10.29289045       1.47531875      -0.63200000
P        4.54907504      10.20411246       4.54907504      -0.67000000
P        1.47531875       7.37659375      10.31804808      -0.67100000
P        4.44386081       7.37659375       7.37659375      -0.67400000
P        1.47531875      10.31804808       7.37659375      -0.67100000
P        4.42355010      10.32963740      10.32963740      -0.67300000
P        7.37659375       1.47531875       4.43513942      -0.67100000
P       10.29289045       1.47531875       1.47531875      -0.63200000
P        7.37659375       4.43513942       1.47531875      -0.67100000
P       10.20411246       4.54907504       4.54907504      -0.67000000
P        7.37659375       1.47531875      10.31804808      -0.67100000
P       10.31804808       1.47531875       7.37659375      -0.67100000
P        7.37659375       4.44386081       7.37659375      -0.67400000
P       10.32963740       4.42355010      10.32963740      -0.67300000
P        7.37659375       7.37659375       4.44386081      -0.67400000
P       10.31804808       7.37659375       1.47531875      -0.67100000
P        7.37659375      10.31804808       1.47531875      -0.67100000
P       10.32963740      10.32963740       4.42355010      -0.67300000
P        7.37659375       7.37659375      10.30932669      -0.67400000
P       10.30932669       7.37659375       7.37659375      -0.67400000
P        7.37659375      10.30932669       7.37659375      -0.67400000
P       10.20411246      10.20411246      10.20411246      -0.67000000
In      -0.16987004      -0.16987004      -0.16987004       0.61300000
In       3.12050754      -0.16987004       3.12050754       0.61300000
In      -0.16987004       3.12050754       3.12050754       0.61300000
In       3.12050754       3.12050754      -0.16987004       0.61300000
In      -0.00752097      -0.00752097       5.91948455       0.66000000
In       2.95815847      -0.00752097       8.83370295       0.66000000
In      -0.00752097       2.95815847       8.83370295       0.66100000
In       2.95815847       2.95815847       5.91948455       0.66000000
In      -0.00752097       5.91948455      -0.00752097       0.66000000
In       2.95815847       5.91948455       2.95815847       0.66000000
In      -0.00752097       8.83370295       2.95815847       0.66100000
In       2.95815847       8.83370295      -0.00752097       0.66100000
In       0.01391330       5.94066823       5.94066823       0.65700000
In       2.93672420       5.94066823       8.81251927       0.65700000
In       0.01391330       8.81251927       8.81251927       0.65700000
In       2.93672420       8.81251927       5.94066823       0.65700000
In       5.91948455      -0.00752097      -0.00752097       0.66000000
In       8.83370295      -0.00752097       2.95815847       0.66000000
In       5.91948455       2.95815847       2.95815847       0.66000000
In       8.83370295       2.95815847      -0.00752097       0.66100000
In       5.94066823       0.01391330       5.94066823       0.65700000
In       8.81251927       0.01391330       8.81251927       0.65700000
In       5.94066823       2.93672420       8.81251927       0.65700000
In       8.81251927       2.93672420       5.94066823       0.65700000
In       5.94066823       5.94066823       0.01391330       0.65700000
In       8.81251927       5.94066823       2.93672420       0.65700000
In       5.94066823       8.81251927       2.93672420       0.65700000
In       8.81251927       8.81251927       0.01391330       0.65700000
In       5.89328385       5.89328385       5.89328385       0.66500000
In       8.85990365       5.89328385       8.85990365       0.66500000
In       5.89328385       8.85990365       8.85990365       0.66500000
In       8.85990365       8.85990365       5.89328385       0.66500000
In       1.47531875       1.47531875       1.47531875       0.34500000
65
Lattice="11.80255 0.0 0.0 0.0 11.80255 0.0 0.0 0.0 11.80255" Properties=species:S:1:pos:R:3:mulliken_charges:R:1 fermi_energy=4.781312370495001 core_to_fermi_energy=16.851734769525017 config_type=Interstitial energy=-64625.866684665634 pbc="T T T"
P        1.50439581       1.44624169       4.46246674      -0.63200000
P        4.46999706       1.46709614       1.47350039      -0.63200000
P        1.50439581       4.45606248       1.45264594      -0.63200000
P        4.43041576       4.41717961       4.42358386      -0.67300000
P        1.48354136       1.46709614      10.28959469      -0.63200000
P        4.44904481       1.46184714       7.37282944      -0.67100000
P        1.48418500       4.42237114       7.37222946      -0.67100000
P        4.57927125       4.54950202      10.18032050      -0.67000000
P        1.48418500       7.36582521       4.42877539      -0.67100000
P        4.44904481       7.36642518       1.46825140      -0.67100000
P        1.48354136      10.28319044       1.47350039      -0.63200000
P        4.57927125      10.17391625       4.55590628      -0.67000000
P        1.48879036       7.36642518      10.31054695      -0.67100000
P        4.45997886       7.36489588       7.37130014      -0.67400000
P        1.48879036      10.30414269       7.37282944      -0.67100000
P        4.43071548      10.32247202      10.32887628      -0.67300000
P        7.38736229       1.46645250       4.42877539      -0.67100000
P       10.29712502       1.44624169       1.45264594      -0.63200000
P        7.38736229       4.42237114       1.47285676      -0.67100000
P       10.27192501       4.48126249       4.48766674      -0.67000000
P        7.38676232       1.46184714      10.31054695      -0.67100000
P       10.33081636       1.46645250       7.37222946      -0.67100000
P        7.40547221       4.42715143       7.35411955      -0.67400000
P       10.33600789       4.41717961      10.32917599      -0.67300000
P        7.40547221       7.34771529       4.43355568      -0.67400000
P       10.33081636       7.36582521       1.47285676      -0.67100000
P        7.38676232      10.30414269       1.46825140      -0.67100000
P       10.33600789      10.32277174       4.42358386      -0.67300000
P        7.38829162       7.36489588      10.29961289      -0.67400000
P       10.32603607       7.34771529       7.35411955      -0.67400000
P        7.38829162      10.29320864       7.37130014      -0.67400000
P       10.20368548      10.17391625      10.18032050      -0.67000000
In      -0.19420340      -0.19141228      -0.18500802       0.61300000
In       3.14204978      -0.19141228       3.15124516       0.61300000
In      -0.09384827       3.04448577       3.05089002       0.61300000
In       3.14204978       3.14484090      -0.18500802       0.61300000
In       0.00469546      -0.01992843       5.92036300       0.66000000
In       2.96693485      -0.01629735       8.83129287       0.66000000
In      -0.00163066       2.95226816       8.83371227       0.66100000
In       2.97056593       2.94594204       5.92036300       0.66000000
In       0.00469546       5.91395875      -0.01352417       0.66000000
In       2.97056593       5.91395875       2.95234630       0.66000000
In      -0.00163066       8.82730802       2.95867242       0.66100000
In       2.96693485       8.82488861      -0.00989310       0.66100000
In       0.02264974       5.90451124       5.91091550       0.65700000
In       2.94775665       5.93203075       8.80147898       0.65700000
In       0.02573378       8.78776383       8.79416809       0.65700000
In       2.94775665       8.79507472       5.93843501       0.65700000
In       5.92829889      -0.01629735      -0.00989310       0.66000000
In       8.83922875      -0.01992843       2.95234630       0.66000000
In       5.92587948       2.95226816       2.95867242       0.66000000
In       8.83922875       2.94594204      -0.01352417       0.66100000
In       5.95811278       0.00288085       5.93843501       0.65700000
In       8.82115675       0.00288085       8.80147898       0.65700000
In       5.96542367       2.92490372       8.79416809       0.65700000
In       8.84867626       2.92798776       5.91091550       0.65700000
In       5.95811278       5.93203075       0.00928511       0.65700000
In       8.84867626       5.90451124       2.93439201       0.65700000
In       5.96542367       8.78776383       2.93130797       0.65700000
In       8.82115675       8.79507472       0.00928511       0.65700000
In       5.91047541       5.88204871       5.88845296       0.66500000
In       8.87113879       5.88204871       8.84911635       0.66500000
In       5.90033868       8.85284882       8.85925308       0.66500000
In       8.87113879       8.84271209       5.88845296       0.66500000
In       1.54932394       1.40131356       1.40771781       0.34500000
65
Lattice="11.80255 0.0 0.0 0.0 11.80255 0.0 0.0 0.0 11.80255" Properties=species:S:1:pos:R:3:mulliken_charges:R:1 fermi_energy=4.781312370495001 core_to_fermi_energy=16.851734769525017 config_type=Interstitial energy=-64625.81700051236 pbc="T T T"
P        1.52327567       1.42736183       4.48630752      -0.63200000
P        4.47413030       1.46951868       1.47893184      -0.63200000
P        1.52327567       4.47689435       1.43677499      -0.63200000
P        4.43265964       4.41881625       4.42822941      -0.67300000
P        1.48111882       1.46951868      10.28847036      -0.63200000
P        4.45379676       1.45625915       7.37493096      -0.67100000
P        1.48428362       4.42239708       7.37202662      -0.67100000
P        4.59975552       4.55684664      10.16284515      -0.67000000
P        1.48428362       7.36261346       4.43181024      -0.67100000
P        4.45379676       7.36551780       1.46567231      -0.67100000
P        1.48111882      10.27905720       1.47893184      -0.63200000
P        4.59975552      10.15343198       4.56625981      -0.67000000
P        1.49437835       7.36551780      10.30880390      -0.67100000
P        4.46751890       7.36194567       7.37135883      -0.67400000
P        1.49437835      10.29939074       7.37493096      -0.67100000
P        4.42907600      10.32411150      10.33352466      -0.67300000
P        7.39057404       1.46635388       4.43181024      -0.67100000
P       10.27629315       1.42736183       1.43677499      -0.63200000
P        7.39057404       4.42239708       1.47576704      -0.67100000
P       10.34908147       4.40410603       4.41351919      -0.67000000
P        7.38766970       1.45625915      10.30880390      -0.67100000
P       10.33079042       1.46635388       7.37202662      -0.67100000
P        7.42601699       4.41802475       7.33658367      -0.67400000
P       10.33437125       4.41881625      10.32994102      -0.67300000
P        7.42601699       7.32717051       4.42743791      -0.67400000
P       10.33079042       7.36261346       1.47576704      -0.67100000
P        7.38766970      10.29939074       1.46567231      -0.67100000
P       10.33437125      10.32052786       4.42822941      -0.67300000
P        7.39124183       7.36194567      10.29508176      -0.67400000
P       10.33516275       7.32717051       7.33658367      -0.67400000
P        7.39124183      10.28566860       7.37135883      -0.67400000
P       10.19634086      10.15343198      10.16284515      -0.67000000
In      -0.24521551      -0.19428015      -0.18486699       0.61300000
In       3.14491765      -0.19428015       3.20526617       0.61300000
In       0.00170957       2.94892793       2.95834109       0.61300000
In       3.14491765       3.19585301      -0.18486699       0.61300000
In       0.00226792      -0.02752021       5.93078628       0.66000000
In       2.96645406      -0.01581656       8.83579358       0.66000000
In      -0.00446514       2.95510264       8.83222748       0.66100000
In       2.97815771       2.94836958       5.93078628       0.66000000
In       0.00226792       5.92137312      -0.01810705       0.66000000
In       2.97815771       5.92137312       2.95778274       0.66000000
In      -0.00446514       8.82281432       2.96451580       0.66100000
In       2.96645406       8.82638042      -0.00640340       0.66100000
In       0.01732762       5.87107512       5.88048828       0.65700000
In       2.95109548       5.93216803       8.79665939       0.65700000
In       0.03091958       8.77249572       8.78190888       0.65700000
In       2.95109548       8.78724623       5.94158119       0.65700000
In       5.92680708      -0.01581656      -0.00640340       0.66000000
In       8.83181438      -0.02752021       2.95778274       0.66000000
In       5.93037318       2.95510264       2.96451580       0.66000000
In       8.83181438       2.94836958      -0.01810705       0.66100000
In       5.96594127      -0.00045798       5.94158119       0.65700000
In       8.82101947      -0.00045798       8.79665939       0.65700000
In       5.98069178       2.91971792       8.78190888       0.65700000
In       8.88211238       2.93330988       5.88048828       0.65700000
In       5.96594127       5.93216803       0.00895519       0.65700000
In       8.88211238       5.87107512       2.94272305       0.65700000
In       5.98069178       8.77249572       2.92913108       0.65700000
In       8.82101947       8.78724623       0.00895519       0.65700000
In       5.92035501       5.88047908       5.88989224       0.66500000
In       8.87270842       5.88047908       8.84224565       0.66500000
In       5.89904776       8.85413974       8.86355290       0.66500000
In       8.87270842       8.83283249       5.88989224       0.66500000
In       1.64482404       1.30581346       1.31522663       0.34500000
65
Lattice="11.80255 0.0 0.0 0.0 11.80255 0.0 0.0 0.0 11.80255" Properties=species:S:1:pos:R:3:mulliken_charges:R:1 fermi_energy=4.781312370495001 core_to_fermi_energy=16.851734769525017 config_type=Interstitial energy=-64625.72576290297 pbc="T T T"
P        1.52683468       1.42380282       4.52592026      -0.63200000
P        4.49567604       1.47915607       1.48950870      -0.63200000
P        1.52683468       4.51556764       1.43415544      -0.63200000
P        4.43688511       4.42250657       4.43285920      -0.67300000
P        1.47148143       1.47915607      10.26786408      -0.63200000
P        4.45383791       1.45583212       7.37691317      -0.67100000
P        1.48221806       4.43340207       7.36949149      -0.67100000
P        4.60306769       4.55663389      10.16047244      -0.67000000
P        1.48221806       7.35913886       4.44375469      -0.67100000
P        4.45383791       7.36656055       1.46618475      -0.67100000
P        1.47148143      10.25751146       1.48950870      -0.63200000
P        4.60306769      10.15011981       4.56698652      -0.67000000
P        1.49480538       7.36656055      10.30970221      -0.67100000
P        4.46745908       7.36460799       7.37496062      -0.67400000
P        1.49480538      10.29934959       7.37691317      -0.67100000
P        4.42382059      10.32936691      10.33971954      -0.67300000
P        7.39404864       1.46841944       4.44375469      -0.67100000
P       10.23761986       1.42380282       1.43415544      -0.63200000
P        7.39404864       4.43340207       1.47877206      -0.67100000
P       10.41753112       4.33565638       4.34600901      -0.67000000
P        7.38662695       1.45583212      10.30970221      -0.67100000
P       10.31978543       1.46841944       7.36949149      -0.67100000
P        7.43411375       4.41535645       7.32942637      -0.67400000
P       10.33068093       4.42250657      10.32665502      -0.67300000
P        7.43411375       7.31907375       4.42570908      -0.67400000
P       10.31978543       7.35913886       1.47877206      -0.67100000
P        7.38662695      10.29934959       1.46618475      -0.67100000
P       10.33068093      10.31630239       4.43285920      -0.67300000
P        7.38857951       7.36460799      10.29608105      -0.67400000
P       10.33783105       7.31907375       7.32942637      -0.67400000
P        7.38857951      10.28572842       7.37496062      -0.67400000
P       10.19655361      10.15011981      10.16047244      -0.67000000
In      -0.29448586      -0.17605977      -0.16570714       0.61300000
In       3.12669727      -0.17605977       3.25547598       0.61300000
In       0.10425069       2.84638681       2.85673944       0.61300000
In       3.12669727       3.24512336      -0.16570714       0.61300000
In      -0.01033592      -0.03369160       5.94338097       0.66000000
In       2.96364014      -0.01300264       8.83739699       0.66000000
In      -0.01548011       2.96611761       8.81436718       0.66100000
In       2.98432910       2.96097342       5.94338097       0.66000000
In      -0.01033592       5.93302834      -0.02333898       0.66000000
In       2.98432910       5.93302834       2.97132604       0.66000000
In      -0.01548011       8.80401456       2.97647023       0.66100000
In       2.96364014       8.82704437      -0.00265001       0.66100000
In       0.00123842       5.84687726       5.85722988       0.65700000
In       2.95181488       5.93352142       8.79829538       0.65700000
In       0.03291240       8.76843044       8.77878306       0.65700000
In       2.95181488       8.78794275       5.94387405       0.65700000
In       5.92614313      -0.01300264      -0.00265001       0.66000000
In       8.82015916      -0.03369160       2.97132604       0.66000000
In       5.94917294       2.96611761       2.97647023       0.66000000
In       8.82015916       2.96097342      -0.02333898       0.66100000
In       5.96524475      -0.00117738       5.94387405       0.65700000
In       8.81966608      -0.00117738       8.79829538       0.65700000
In       5.98475706       2.91772510       8.77878306       0.65700000
In       8.90631024       2.94939908       5.85722988       0.65700000
In       5.96524475       5.93352142       0.00917525       0.65700000
In       8.90631024       5.84687726       2.95975170       0.65700000
In       5.98475706       8.76843044       2.92807772       0.65700000
In       8.81966608       8.78794275       0.00917525       0.65700000
In       5.92362989       5.88560590       5.89595853       0.66500000
In       8.86758160       5.88560590       8.83991024       0.66500000
In       5.89488713       8.85830037       8.86865299       0.66500000
In       8.86758160       8.82955761       5.89595853       0.66500000
In       1.76600159       1.18463591       1.19498854       0.34500000
65
Lattice="11.80255 0.0 0.0 0.0 11.80255 0.0 0.0 0.0 11.80255" Properties=species:S:1:pos:R:3:mulliken_charges:R:1 fermi_energy=4.781312370495001 core_to_fermi_energy=16.851734769525017 config_type=Interstitial energy=-64625.57953618006 pbc="T T T"
P        1.51423713       1.43640037       4.54091808      -0.63200000
P        4.54641296       1.49521040       1.50558040      -0.63200000
P        1.51423713       4.53054808       1.44677038      -0.63200000
P        4.44325695       4.42467504       4.43504504      -0.67300000
P        1.45542710       1.49521040      10.21714454      -0.63200000
P        4.45203543       1.45814622       7.37370589      -0.67100000
P        1.48444957       4.44722822       7.36093049      -0.67100000
P        4.58806811       4.54301828      10.17548940      -0.67000000
P        1.48444957       7.35056048       4.45759822      -0.67100000
P        4.45203543       7.36333588       1.46851623      -0.67100000
P        1.45542710      10.20677454       1.50558040      -0.63200000
P        4.58806811      10.16511939       4.55338828      -0.67000000
P        1.49249128       7.36333588      10.31152208      -0.67100000
P        4.46340903       7.36848117       7.37885117      -0.67400000
P        1.49249128      10.30115207       7.37370589      -0.67100000
P        4.41996157      10.33322593      10.34359594      -0.67300000
P        7.40262702       1.46618793       4.45759822      -0.67100000
P       10.22263942       1.43640037       1.44677038      -0.63200000
P        7.40262702       4.44722822       1.47655794      -0.67100000
P       10.44024671       4.31294079       4.32331079      -0.67000000
P        7.38985162       1.45814622      10.31152208      -0.67100000
P       10.30595928       1.46618793       7.36093049      -0.67100000
P        7.42855979       4.41742159       7.33499772      -0.67400000
P       10.32851246       4.42467504      10.32030056      -0.67300000
P        7.42855979       7.32462771       4.42779159      -0.67400000
P       10.30595928       7.35056048       1.47655794      -0.67100000
P        7.38985162      10.30115207       1.46851623      -0.67100000
P       10.32851246      10.30993055       4.43504504      -0.67300000
P        7.38470633       7.36848117      10.30014847      -0.67400000
P       10.33576591       7.32462771       7.33499772      -0.67400000
P        7.38470633      10.28977847       7.37885117      -0.67400000
P       10.21016922      10.16511939      10.17548940      -0.67000000
In      -0.31122944      -0.14605520      -0.13568519       0.61300000
In       3.09669270      -0.14605520       3.27223695       0.61300000
In       0.16157619       2.78906131       2.79943132       0.61300000
In       3.09669270       3.26186694      -0.13568519       0.61300000
In      -0.01961595      -0.03522703       5.94421616       0.66000000
In       2.96257346      -0.01193596       8.82980010       0.66000000
In      -0.03479473       2.98543223       8.77723623       0.66100000
In       2.98586453       2.97025345       5.94421616       0.66000000
In      -0.01961595       5.93384615      -0.02485702       0.66000000
In       2.98586453       5.93384615       2.98062345       0.66000000
In      -0.03479473       8.76686622       2.99580224       0.66100000
In       2.96257346       8.81943009      -0.00156595       0.66100000
In      -0.01349278       5.84314754       5.85351755       0.65700000
In       2.95363896       5.93192842       8.80405184       0.65700000
In       0.03356817       8.77435982       8.78472983       0.65700000
In       2.95363896       8.79368184       5.94229843       0.65700000
In       5.93375741      -0.01193596      -0.00156595       0.66000000
In       8.81934135      -0.03522703       2.98062345       0.66000000
In       5.98632128       2.98543223       2.99580224       0.66000000
In       8.81934135       2.97025345      -0.02485702       0.66100000
In       5.95950566      -0.00300146       5.94229843       0.65700000
In       8.82125908      -0.00300146       8.80405184       0.65700000
In       5.97882768       2.91706933       8.78472983       0.65700000
In       8.91003996       2.96413028       5.85351755       0.65700000
In       5.95950566       5.93192842       0.00736855       0.65700000
In       8.91003996       5.84314754       2.97450029       0.65700000
In       5.97882768       8.77435982       2.92743933       0.65700000
In       8.82125908       8.79368184       0.00736855       0.65700000
In       5.92207129       5.89193375       5.90230375       0.66500000
In       8.86125375       5.89193375       8.84148622       0.66500000
In       5.89281948       8.86036802       8.87073802       0.66500000
In       8.86125375       8.83111621       5.90230375       0.66500000
In       1.89058552       1.06005198       1.07042198       0.34500000
65
Lattice="11.80255 0.0 0.0 0.0 11.80255 0.0 0.0 0.0 11.80255" Properties=species:S:1:pos:R:3:mulliken_charges:R:1 fermi_energy=4.781312370495001 core_to_fermi_energy=16.851734769525017 config_type=Interstitial energy=-64625.372586107034 pbc="T T T"
P        1.50056129       1.45007621       4.53371057      -0.63200000
P        4.59144387       1.51162738       1.52196768      -0.63200000
P        1.50056129       4.52337028       1.46041651      -0.63200000
P        4.44656166       4.42527748       4.43561778      -0.67300000
P        1.43901012       1.51162738      10.17208393      -0.63200000
P        4.45030823       1.45984364       7.37058445      -0.67100000
P        1.48833138       4.45480713       7.35388410      -0.67100000
P        4.57158563       4.52755333      10.19194216      -0.67000000
P        1.48833138       7.34354381       4.46514742      -0.67100000
P        4.45030823       7.36024416       1.47018394      -0.67100000
P        1.43901012      10.16174363       1.52196768      -0.63200000
P        4.57158563      10.18160187       4.53789362      -0.67000000
P        1.49079386       7.36024416      10.31321956      -0.67100000
P        4.46117229       7.37004722       7.38038751      -0.67400000
P        1.49079386      10.30287927       7.37058445      -0.67100000
P        4.41912992      10.33405758      10.34439788      -0.67300000
P        7.40964369       1.46230612       4.46514742      -0.67100000
P       10.22981722       1.45007621       1.46041651      -0.63200000
P        7.40964369       4.45480713       1.47264642      -0.67100000
P       10.43049117       4.32269633       4.33303663      -0.67000000
P        7.39294334       1.45984364      10.31321956      -0.67100000
P       10.29838037       1.46230612       7.35388410      -0.67100000
P        7.42227566       4.41949826       7.34125213      -0.67400000
P       10.32791002       4.42527748      10.31696613      -0.67300000
P        7.42227566       7.33091184       4.42983856      -0.67400000
P       10.29838037       7.34354381       1.47264642      -0.67100000
P        7.39294334      10.30287927       1.47018394      -0.67100000
P       10.32791002      10.30662584       4.43561778      -0.67300000
P        7.38314028       7.37004722      10.30235550      -0.67400000
P       10.33368924       7.33091184       7.34125213      -0.67400000
P        7.38314028      10.29201521       7.38038751      -0.67400000
P       10.22563417      10.18160187      10.19194216      -0.67000000
In      -0.30835455      -0.11990294      -0.10956265       0.61300000
In       3.07054044      -0.11990294       3.26933234       0.61300000
In       0.16041308       2.79022442       2.80056472       0.61300000
In       3.07054044       3.25899205      -0.10956265       0.61300000
In      -0.02145862      -0.03368307       5.93878103       0.66000000
In       2.96088064      -0.01024314       8.82222449       0.66000000
In      -0.05132277       3.00196027       8.74756226       0.66100000
In       2.98432057       2.97209612       5.93878103       0.66000000
In      -0.02145862       5.92844074      -0.02334278       0.66000000
In       2.98432057       5.92844074       2.98243642       0.66000000
In      -0.05132277       8.73722196       3.01230056       0.66100000
In       2.96088064       8.81188419       0.00009716       0.66100000
In      -0.01749934       5.84885708       5.85919738       0.65700000
In       2.95595004       5.93005964       8.80878856       0.65700000
In       0.03299520       8.77979644       8.79013674       0.65700000
In       2.95595004       8.79844826       5.94039993       0.65700000
In       5.94130331      -0.01024314       0.00009716       0.66000000
In       8.82474676      -0.03368307       2.98243642       0.66000000
In       6.01596554       3.00196027       3.01230056       0.66000000
In       8.82474676       2.97209612      -0.02334278       0.66100000
In       5.95473924      -0.00531254       5.94039993       0.65700000
In       8.82312786      -0.00531254       8.80878856       0.65700000
In       5.97339106       2.91764230       8.79013674       0.65700000
In       8.90433042       2.96813684       5.85919738       0.65700000
In       5.95473924       5.93005964       0.00502776       0.65700000
In       8.90433042       5.84885708       2.97847714       0.65700000
In       5.97339106       8.77979644       2.92798259       0.65700000
In       8.82312786       8.79844826       0.00502776       0.65700000
In       5.92043101       5.89443855       5.90477885       0.66500000
In       8.85874895       5.89443855       8.84309678       0.66500000
In       5.89352286       8.85966464       8.87000493       0.66500000
In       8.85874895       8.83275649       5.90477885       0.66500000
In       2.01359190       0.93704560       0.94738589       0.34500000
65
Lattice="11.80255 0.0 0.0 0.0 11.80255 0.0 0.0 0.0 11.80255" Properties=species:S:1:pos:R:3:mulliken_charges:R:1 fermi_energy=4.781312370495001 core_to_fermi_energy=16.851734769525017 config_type=Interstitial energy=-64625.20618718813 pbc="T T T"
P        1.49229069       1.45834681       4.52349076      -0.63200000
P        4.61608504       1.52568461       1.53602115      -0.63200000
P        1.49229069       4.51315423       1.46868334      -0.63200000
P        4.44799605       4.42571897       4.43605550      -0.67300000
P        1.42495289       1.52568461      10.14743899      -0.63200000
P        4.44937761       1.46105194       7.36940178      -0.67100000
P        1.49089799       4.45807277       7.35003453      -0.67100000