63
Lattice="11.8016818 -7.6e-06 -7.6e-06 -7.6e-06 11.8016818 -7.8e-06 -7.6e-06 -7.8e-06 11.8016816" Properties=species:S:1:pos:R:3:mulliken_charges:R:1 virial="-0.001343979365248383 3.847269175329341e-05 3.847269175329341e-05 3.847269175329341e-05 -0.001345261788306826 3.847269175329341e-05 3.847269175329341e-05 3.847269175329341e-05 -0.0013426969421899398" fermi_energy=3.4539138232004998 core_to_fermi_energy=15.43004959127955 config_type=Accurate_Bulk energy=-61124.51019101252 pbc="T T T"
P        1.47872097       1.47872091       4.43016759      -0.67500000
P        4.43016775       1.47872098       1.47872088      -0.67500000
P        1.47872099       4.43016773       1.47872083      -0.67500000
P        4.44073779       4.44073776       4.44073763      -0.67500000
In       0.00000076       0.00000074       0.00000074       0.67500000
In       2.95183955       0.00774525       2.95183957       0.67500000
In       0.00774530       2.95183949       2.95183952       0.67500000
In       2.95183955       2.95183954       0.00774527       0.67500000
P        1.47632032       1.47632014      10.32535143      -0.67500000
P        4.42095264       1.47129526       7.38071740      -0.67500000
P        1.47129536       4.42095253       7.38071736      -0.67500000
P        4.42094926       4.42094911      10.33037075      -0.67500000
In      -0.00000262      -0.00000275       5.90084134       0.67500000
In       2.95183586      -0.00775503       8.84983941       0.67500000
In      -0.00775486       2.95183571       8.84983936       0.67500000
In       2.97432703       2.97432693       5.89939369       0.67500000
P        1.47129536       7.38071745       4.42095242      -0.67500000
P        4.42095266       7.38071748       1.47129519      -0.67500000
P        1.47632032      10.32535157       1.47632008      -0.67500000
P        4.42094924      10.33037087       4.42094898      -0.67500000
In      -0.00000262       5.90084144      -0.00000275       0.67500000
In       2.97432704       5.89939377       2.97432697       0.67500000
In      -0.00775486       8.84983959       2.95183574       0.67500000
In       2.95183587       8.84983964      -0.00775505       0.67500000
P        1.47871187       7.37150381      10.32295095      -0.67500000
P        4.44072464       7.36093583       7.36093576      -0.67500000
P        1.47871184      10.32295108       7.37150374      -0.67500000
P        4.43015586      10.32294712      10.32294701      -0.67500000
In      -0.00000717       5.90083728       5.90083718       0.67500000
In       2.97431985       5.90227674       8.82734706       0.67500000
In       0.00773639       8.84983549       8.84983526       0.67500000
In       2.97431984       8.82734730       5.90227661       0.67500000
P        7.38071749       1.47129532       4.42095253      -0.67500000
P       10.32535157       1.47632031       1.47632024      -0.67500000
P        7.38071747       4.42095265       1.47129524      -0.67500000
P       10.33037091       4.42094919       4.42094909      -0.67500000
In       5.90084145      -0.00000265      -0.00000265       0.67500000
In       8.84983966      -0.00775491       2.95183589       0.67500000
In       5.89939382       2.97432701       2.97432704       0.67500000
In       8.84983966       2.95183586      -0.00775494       0.67500000
P        7.37150397       1.47871169      10.32295107      -0.67500000
P       10.32295119       1.47871172       7.37150390      -0.67500000
P        7.36093602       4.44072444       7.36093593      -0.67500000
P       10.32294728       4.43015569      10.32294713      -0.67500000
In       5.90083739      -0.00000728       5.90083728       0.67500000
In       8.84983566       0.00773622       8.84983540       0.67500000
In       5.90227689       2.97431965       8.82734715       0.67500000
In       8.82734744       2.97431971       5.90227671       0.67500000
P        7.36093602       7.36093600       4.44072431      -0.67500000
P       10.32295117       7.37150397       1.47871164      -0.67500000
P        7.37150397      10.32295117       1.47871159      -0.67500000
P       10.32294731      10.32294726       4.43015555      -0.67500000
In       5.90083739       5.90083738      -0.00000728       0.67500000
In       8.82734742       5.90227683       2.97431975       0.67500000
In       5.90227689       8.82734738       2.97431968       0.67500000
In       8.84983565       8.84983563       0.00773624       0.67500000
P        7.38070968       7.38070954      10.33036656      -0.67500000
P       10.33036678       7.38070960       7.38070951      -0.67500000
P        7.38070970      10.33036669       7.38070946      -0.67500000
P       10.32533919      10.32533903      10.32533889      -0.67500000
In       8.82734214       5.89938621       8.82734180       0.67500000
In       5.89938636       8.82734193       8.82734170       0.67500000
In       8.82734215       8.82734204       5.89938613       0.67500000
63
Lattice="11.8016818 -7.6e-06 -7.6e-06 -7.6e-06 11.8016818 -7.8e-06 -7.6e-06 -7.8e-06 11.8016816" Properties=species:S:1:pos:R:3:mulliken_charges:R:1 virial="-0.001343979365248383 3.847269175329341e-05 3.847269175329341e-05 3.847269175329341e-05 -0.001345261788306826 3.847269175329341e-05 3.847269175329341e-05 3.847269175329341e-05 -0.0013426969421899398" fermi_energy=3.4539138232004998 core_to_fermi_energy=15.43004959127955 config_type=Accurate_Bulk energy=-61124.47840625555 pbc="T T T"
P        1.51920363       1.51920357       4.45137150      -0.67500000
P        4.45137159       1.51920363       1.51920360      -0.67500000
P        1.51920363       4.45137158       1.51920355      -0.67500000
P        4.61762150       4.61762151       4.61762145      -0.67500000
In       0.00705189       0.00705187       0.00705187       0.67500000
In       2.96192321       0.02759698       2.96192314       0.67500000
In       0.02759704       2.96192316       2.96192310       0.67500000
In       2.96192321       2.96192320       0.02759698       0.67500000
P        1.48735343       1.48735326      10.33880219      -0.67500000
P        4.42452787       1.48535970       7.37898699      -0.67500000
P        1.48535980       4.42452776       7.37898694      -0.67500000
P        4.42539316       4.42539301      10.33431881      -0.67500000
In       0.02485003       0.02484990       5.90958806       0.67500000
In       2.96223069       0.00447150       8.85784207       0.67500000
In       0.00447167       2.96223051       8.85784202       0.67500000
In       3.04856159       3.04856149       5.87479976       0.67500000
P        1.48535979       7.37898707       4.42452769      -0.67500000
P        4.42452787       7.37898711       1.48535968      -0.67500000
P        1.48735343      10.33880237       1.48735323      -0.67500000
P        4.42539316      10.33431899       4.42539293      -0.67500000
In       0.02485003       5.90958816       0.02484990       0.67500000
In       3.04856160       5.87479987       3.04856145       0.67500000
In       0.00447167       8.85784217       2.96223046       0.67500000
In       2.96223069       8.85784222       0.00447150       0.67500000
P        1.48930625       7.38239493      10.32866042      -0.67500000
P        4.46526756       7.33695304       7.33695290      -0.67500000
P        1.48930624      10.32866060       7.38239481      -0.67500000
P        4.44339842      10.33663285      10.33663267      -0.67500000
In       0.00831594       5.90458651       5.90458641       0.67500000
In       2.98177009       5.91208818       8.82722545       0.67500000
In       0.00735835       8.85169848       8.85169833       0.67500000
In       2.98177009       8.82722561       5.91208808       0.67500000
P        7.37898711       1.48535976       4.42452780      -0.67500000
P       10.33880238       1.48735342       1.48735339      -0.67500000
P        7.37898710       4.42452787       1.48535974      -0.67500000
P       10.33431903       4.42539311       4.42539303      -0.67500000
In       5.90958817       0.02485000       0.02485000       0.67500000
In       8.85784223       0.00447163       2.96223062       0.67500000
In       5.87479990       3.04856157       3.04856152       0.67500000
In       8.85784223       2.96223068       0.00447163       0.67500000
P        7.38239510       1.48930607      10.32866054      -0.67500000
P       10.32866072       1.48930611       7.38239496      -0.67500000
P        7.33695325       4.46526738       7.33695309      -0.67500000
P       10.33663303       4.44339824      10.33663281      -0.67500000
In       5.90458662       0.00831583       5.90458651       0.67500000
In       8.85169865       0.00735817       8.85169848       0.67500000
In       5.91208835       2.98176990       8.82722554       0.67500000
In       8.82722574       2.98176996       5.91208819       0.67500000
P        7.33695325       7.33695323       4.46526732      -0.67500000
P       10.32866071       7.38239509       1.48930609      -0.67500000
P        7.38239510      10.32866072       1.48930604      -0.67500000
P       10.33663304      10.33663299       4.44339816      -0.67500000
In       5.90458662       5.90458661       0.00831583       0.67500000
In       8.82722573       5.91208829       2.98176992       0.67500000
In       5.91208835       8.82722570       2.98176985       0.67500000
In       8.85169864       8.85169863       0.00735816       0.67500000
P        7.38132651       7.38132636      10.33013899      -0.67500000
P       10.33013928       7.38132642       7.38132629      -0.67500000
P        7.38132652      10.33013917       7.38132624      -0.67500000
P       10.33099625      10.33099608      10.33099590      -0.67500000
In       8.82329138       5.89324159       8.82329112       0.67500000
In       5.89324174       8.82329116       8.82329101       0.67500000
In       8.82329139       8.82329128       5.89324148       0.67500000
63
Lattice="11.8016818 -7.6e-06 -7.6e-06 -7.6e-06 11.8016818 -7.8e-06 -7.6e-06 -7.8e-06 11.8016816" Properties=species:S:1:pos:R:3:mulliken_charges:R:1 virial="-0.001343979365248383 3.847269175329341e-05 3.847269175329341e-05 3.847269175329341e-05 -0.001345261788306826 3.847269175329341e-05 3.847269175329341e-05 3.847269175329341e-05 -0.0013426969421899398" fermi_energy=3.4539138232004998 core_to_fermi_energy=15.43004959127955 config_type=Accurate_Bulk energy=-61124.419056219056 pbc="T T T"
P        1.53704921       1.53704916       4.46207999      -0.67500000
P        4.46208007       1.53704920       1.53704917      -0.67500000
P        1.53704922       4.46208007       1.53704914      -0.67500000
P        4.69730327       4.69730339       4.69730333      -0.67500000
In       0.00690372       0.00690370       0.00690370       0.67500000
In       2.96446445       0.03601261       2.96446438       0.67500000
In       0.03601267       2.96446440       2.96446435       0.67500000
In       2.96446445       2.96446444       0.03601261       0.67500000
P        1.48978107       1.48978090      10.34231920      -0.67500000
P        4.42531577       1.48744171       7.37613721      -0.67500000
P        1.48744176       4.42531565       7.37613715      -0.67500000
P        4.42358071       4.42358057      10.33003693      -0.67500000
In       0.02920044       0.02920031       5.90482180       0.67500000
In       2.96143979       0.00599776       8.85660028       0.67500000
In       0.00599793       2.96143959       8.85660024       0.67500000
In       3.08555494       3.08555485       5.87002329       0.67500000
P        1.48744176       7.37613729       4.42531557      -0.67500000
P        4.42531577       7.37613733       1.48744168      -0.67500000
P        1.48978107      10.34231937       1.48978087      -0.67500000
P        4.42358071      10.33003711       4.42358049      -0.67500000
In       0.02920045       5.90482190       0.02920031       0.67500000
In       3.08555494       5.87002340       3.08555481       0.67500000
In       0.00599793       8.85660039       2.96143954       0.67500000
In       2.96143979       8.85660043       0.00599776       0.67500000
P        1.48842325       7.38200359      10.32646000      -0.67500000
P        4.48341613       7.30032435       7.30032421      -0.67500000
P        1.48842324      10.32646019       7.38200346      -0.67500000
P        4.44411831      10.33251996      10.33251979      -0.67500000
In       0.00617670       5.90205579       5.90205569       0.67500000
In       2.98472534       5.91817550       8.82070262       0.67500000
In       0.00105335       8.84753939       8.84753924       0.67500000
In       2.98472533       8.82070278       5.91817540       0.67500000
P        7.37613730       1.48744178       4.42531570      -0.67500000
P       10.34231939       1.48978107       1.48978104      -0.67500000
P        7.37613729       4.42531577       1.48744175      -0.67500000
P       10.33003715       4.42358067       4.42358060      -0.67500000
In       5.90482191       0.02920038       0.02920038       0.67500000
In       8.85660043       0.00599792       2.96143972       0.67500000
In       5.87002337       3.08555496       3.08555492       0.67500000
In       8.85660043       2.96143977       0.00599792       0.67500000
P        7.38200377       1.48842305      10.32646015      -0.67500000
P       10.32646031       1.48842309       7.38200362      -0.67500000
P        7.30032472       4.48341591       7.30032457      -0.67500000
P       10.33252020       4.44411811      10.33251999      -0.67500000
In       5.90205589       0.00617659       5.90205579       0.67500000
In       8.84753956       0.00105315       8.84753940       0.67500000
In       5.91817569       2.98472514       8.82070276       0.67500000
In       8.82070294       2.98472521       5.91817552       0.67500000
P        7.30032472       7.30032471       4.48341585      -0.67500000
P       10.32646030       7.38200375       1.48842306      -0.67500000
P        7.38200377      10.32646032       1.48842302      -0.67500000
P       10.33252020      10.33252017       4.44411803      -0.67500000
In       5.90205588       5.90205589       0.00617659       0.67500000
In       8.82070293       5.91817562       2.98472517       0.67500000
In       5.91817569       8.82070291       2.98472509       0.67500000
In       8.84753955       8.84753955       0.00105315       0.67500000
P        7.37614651       7.37614636      10.32194569      -0.67500000
P       10.32194599       7.37614643       7.37614630      -0.67500000
P        7.37614651      10.32194587       7.37614624      -0.67500000
P       10.32978450      10.32978433      10.32978415      -0.67500000
In       8.80599502       5.87960031       8.80599476       0.67500000
In       5.87960045       8.80599469       8.80599454       0.67500000
In       8.80599503       8.80599491       5.87960021       0.67500000
63
Lattice="11.8016818 -7.6e-06 -7.6e-06 -7.6e-06 11.8016818 -7.8e-06 -7.6e-06 -7.8e-06 11.8016816" Properties=species:S:1:pos:R:3:mulliken_charges:R:1 virial="-0.001343979365248383 3.847269175329341e-05 3.847269175329341e-05 3.847269175329341e-05 -0.001345261788306826 3.847269175329341e-05 3.847269175329341e-05 3.847269175329341e-05 -0.0013426969421899398" fermi_energy=3.4539138232004998 core_to_fermi_energy=15.43004959127955 config_type=Accurate_Bulk energy=-61124.33087198745 pbc="T T T"
P        1.55183599       1.55183593       4.46973638      -0.67500000
P        4.46973644       1.55183592       1.55183590      -0.67500000
P        1.55183600       4.46973646       1.55183591      -0.67500000
P        4.78244694       4.78244749       4.78244742      -0.67500000
In       0.00592061       0.00592059       0.00592059       0.67500000
In       2.96454614       0.04095407       2.96454609       0.67500000
In       0.04095415       2.96454613       2.96454608       0.67500000
In       2.96454615       2.96454615       0.04095407       0.67500000
P        1.49007590       1.49007571      10.34224121      -0.67500000
P        4.42466267       1.48904257       7.37075166      -0.67500000
P        1.48904253       4.42466252       7.37075161      -0.67500000
P        4.42107183       4.42107168      10.32500857      -0.67500000
In       0.03158238       0.03158221       5.89942428       0.67500000
In       2.95997567       0.00580395       8.85292799       0.67500000
In       0.00580410       2.95997542       8.85292797       0.67500000
In       3.12151299       3.12151297       5.86406280       0.67500000
P        1.48904253       7.37075175       4.42466245      -0.67500000
P        4.42466267       7.37075180       1.48904254      -0.67500000
P        1.49007589      10.34224139       1.49007568      -0.67500000
P        4.42107182      10.32500875       4.42107160      -0.67500000
In       0.03158238       5.89942438       0.03158222       0.67500000
In       3.12151299       5.86406292       3.12151292       0.67500000
In       0.00580409       8.85292812       2.95997537       0.67500000
In       2.95997567       8.85292815       0.00580394       0.67500000
P        1.48697719       7.37911891      10.32299198      -0.67500000
P        4.49544585       7.26589916       7.26589901      -0.67500000
P        1.48697719      10.32299217       7.37911879      -0.67500000
P        4.44373414      10.32693977      10.32693959      -0.67500000
In       0.00325232       5.89888666       5.89888655       0.67500000
In       2.98594857       5.92112405       8.81337334       0.67500000
In      -0.00374697       8.84402037       8.84402022       0.67500000
In       2.98594856       8.81337351       5.92112395       0.67500000
P        7.37075169       1.48904266       4.42466262      -0.67500000
P       10.34224143       1.49007590       1.49007587      -0.67500000
P        7.37075168       4.42466270       1.48904264      -0.67500000
P       10.32500880       4.42107180       4.42107172      -0.67500000
In       5.89942438       0.03158222       0.03158223       0.67500000
In       8.85292812       0.00580416       2.95997559       0.67500000
In       5.86406272       3.12151314       3.12151310       0.67500000
In       8.85292812       2.95997564       0.00580416       0.67500000
P        7.37911913       1.48697694      10.32299218      -0.67500000
P       10.32299231       1.48697697       7.37911896      -0.67500000
P        7.26589997       4.49544556       7.26589986      -0.67500000
P       10.32694013       4.44373388      10.32693994      -0.67500000
In       5.89888672       0.00325223       5.89888665       0.67500000
In       8.84402053      -0.00374721       8.84402038       0.67500000
In       5.92112431       2.98594836       8.81337358       0.67500000
In       8.81337372       2.98594846       5.92112413       0.67500000
P        7.26589995       7.26589998       4.49544551      -0.67500000
P       10.32299230       7.37911908       1.48697695      -0.67500000
P        7.37911913      10.32299235       1.48697691      -0.67500000
P       10.32694012      10.32694012       4.44373380      -0.67500000
In       5.89888672       5.89888676       0.00325223       0.67500000
In       8.81337371       5.92112423       2.98594842       0.67500000
In       5.92112431       8.81337373       2.98594831       0.67500000
In       8.84402053       8.84402052      -0.00374721       0.67500000
P        7.37125455       7.37125440      10.31505815      -0.67500000
P       10.31505846       7.37125449       7.37125436      -0.67500000
P        7.37125455      10.31505833       7.37125427      -0.67500000
P       10.32799211      10.32799192      10.32799174      -0.67500000
In       8.78899776       5.86854632       8.78899749       0.67500000
In       5.86854643       8.78899716       8.78899701       0.67500000
In       8.78899776       8.78899764       5.86854621       0.67500000
63
Lattice="11.8016818 -7.6e-06 -7.6e-06 -7.6e-06 11.8016818 -7.8e-06 -7.6e-06 -7.8e-06 11.8016816" Properties=species:S:1:pos:R:3:mulliken_charges:R:1 virial="-0.001343979365248383 3.847269175329341e-05 3.847269175329341e-05 3.847269175329341e-05 -0.001345261788306826 3.847269175329341e-05 3.847269175329341e-05 3.847269175329341e-05 -0.0013426969421899398" fermi_energy=3.4539138232004998 core_to_fermi_energy=15.43004959127955 config_type=Accurate_Bulk energy=-61124.20785437211 pbc="T T T"
P        1.56297105       1.56297099       4.47501637      -0.67500000
P        4.47501631       1.56297079       1.56297076      -0.67500000
P        1.56297107       4.47501645       1.56297098      -0.67500000
P        4.87767408       4.87767607       4.87767595      -0.67500000
In       0.00533273       0.00533270       0.00533270       0.67500000
In       2.96441456       0.04315777       2.96441458       0.67500000
In       0.04315790       2.96441463       2.96441458       0.67500000
In       2.96441456       2.96441464       0.04315778       0.67500000
P        1.48990968       1.48990947      10.34086522      -0.67500000
P        4.42429218       1.49125011       7.36482359      -0.67500000
P        1.49124985       4.42429193       7.36482351      -0.67500000
P        4.41976643       4.41976628      10.32037889      -0.67500000
In       0.03200706       0.03200683       5.89643618       0.67500000
In       2.95873455       0.00533324       8.84922325       0.67500000
In       0.00533334       2.95873422       8.84922325       0.67500000
In       3.15519332       3.15519343       5.85913333       0.67500000
P        1.49124985       7.36482366       4.42429185      -0.67500000
P        4.42429217       7.36482373       1.49125007      -0.67500000
P        1.48990967      10.34086540       1.48990944      -0.67500000
P        4.41976643      10.32037907       4.41976620      -0.67500000
In       0.03200707       5.89643628       0.03200685       0.67500000
In       3.15519331       5.85913346       3.15519337       0.67500000
In       0.00533333       8.84922341       2.95873417       0.67500000
In       2.95873455       8.84922340       0.00533322       0.67500000
P        1.48705805       7.37573266      10.31883556      -0.67500000
P        4.50544511       7.23358725       7.23358710      -0.67500000
P        1.48705805      10.31883575       7.37573254      -0.67500000
P        4.44382049      10.32080426      10.32080408      -0.67500000
In       0.00075021       5.89665094       5.89665084       0.67500000
In       2.98749722       5.92253194       8.80611971       0.67500000
In      -0.00635920       8.84210421       8.84210406       0.67500000
In       2.98749721       8.80611988       5.92253184       0.67500000
P        7.36482349       1.49125024       4.42429218      -0.67500000
P       10.34086549       1.48990971       1.48990968      -0.67500000
P        7.36482349       4.42429225       1.49125021      -0.67500000
P       10.32037913       4.41976643       4.41976636      -0.67500000
In       5.89643629       0.03200670       0.03200670       0.67500000
In       8.84922335       0.00533355       2.95873446       0.67500000
In       5.85913294       3.15519360       3.15519355       0.67500000
In       8.84922335       2.95873451       0.00533355       0.67500000
P        7.37573295       1.48705768      10.31883587      -0.67500000
P       10.31883595       1.48705769       7.37573272      -0.67500000
P        7.23358916       4.50544470       7.23358915      -0.67500000
P       10.32080490       4.44382012      10.32080476      -0.67500000
In       5.89665092       0.00075013       5.89665093       0.67500000
In       8.84210438      -0.00635949       8.84210422       0.67500000
In       5.92253242       2.98749704       8.80612014       0.67500000
In       8.80612021       2.98749724       5.92253221       0.67500000
P        7.23358909       7.23358923       4.50544465      -0.67500000
P       10.31883594       7.37573284       1.48705768      -0.67500000
P        7.37573295      10.31883604       1.48705766      -0.67500000
P       10.32080488      10.32080492       4.44382005      -0.67500000
In       5.89665091       5.89665104       0.00075013       0.67500000
In       8.80612018       5.92253230       2.98749720       0.67500000
In       5.92253241       8.80612029       2.98749699       0.67500000
In       8.84210437       8.84210437      -0.00635949       0.67500000
P        7.36784852       7.36784832      10.31035902      -0.67500000
P       10.31035936       7.36784849       7.36784836      -0.67500000
P        7.36784852      10.31035919       7.36784820      -0.67500000
P       10.32682958      10.32682935      10.32682918      -0.67500000
In       8.77387542       5.86192938       8.77387512       0.67500000
In       5.86192953       8.77387425       8.77387410       0.67500000
In       8.77387539       8.77387524       5.86192927       0.67500000
63
Lattice="11.8016818 -7.6e-06 -7.6e-06 -7.6e-06 11.8016818 -7.8e-06 -7.6e-06 -7.8e-06 11.8016816" Properties=species:S:1:pos:R:3:mulliken_charges:R:1 virial="-0.001343979365248383 3.847269175329341e-05 3.847269175329341e-05 3.847269175329341e-05 -0.001345261788306826 3.847269175329341e-05 3.847269175329341e-05 3.847269175329341e-05 -0.0013426969421899398" fermi_energy=3.4539138232004998 core_to_fermi_energy=15.43004959127955 config_type=Accurate_Bulk energy=-61124.02587924196 pbc="T T T"
P        1.56717069       1.56717061       4.47569524      -0.67500000
P        4.47569490       1.56716994       1.56716991      -0.67500000
P        1.56717072       4.47569533       1.56717062      -0.67500000
P        4.98479071       4.98479675       4.98479647      -0.67500000
In       0.00466329       0.00466323       0.00466323       0.67500000
In       2.96414205       0.04127724       2.96414225       0.67500000
In       0.04127745       2.96414229       2.96414223       0.67500000
In       2.96414206       2.96414232       0.04127724       0.67500000
P        1.48914479       1.48914457      10.33881982      -0.67500000
P        4.42423621       1.49314044       7.35923625      -0.67500000
P        1.49313984       4.42423574       7.35923611      -0.67500000
P        4.41963724       4.41963705      10.31695846      -0.67500000
In       0.02962914       0.02962882       5.89640324       0.67500000
In       2.95706672       0.00457107       8.84624856       0.67500000
In       0.00457110       2.95706630       8.84624860       0.67500000
In       3.17764424       3.17764453       5.85474476       0.67500000
P        1.49313983       7.35923626       4.42423566      -0.67500000
P        4.42423619       7.35923639       1.49314039      -0.67500000
P        1.48914479      10.33881999       1.48914454      -0.67500000
P        4.41963724      10.31695864       4.41963697      -0.67500000
In       0.02962915       5.89640334       0.02962885       0.67500000
In       3.17764425       5.85474492       3.17764449       0.67500000
In       0.00457108       8.84624876       2.95706624       0.67500000
In       2.95706671       8.84624872       0.00457105       0.67500000
P        1.48865649       7.37223352      10.31393470      -0.67500000
P        4.51482919       7.20500103       7.20500087      -0.67500000
P        1.48865649      10.31393489       7.37223340      -0.67500000
P        4.44383215      10.31456801      10.31456783      -0.67500000
In      -0.00123857       5.89529307       5.89529295       0.67500000
In       2.98948914       5.92185501       8.79919660       0.67500000
In      -0.00739463       8.84134407       8.84134392       0.67500000
In       2.98948912       8.79919677       5.92185491       0.67500000
P        7.35923601       1.49314060       4.42423633      -0.67500000
P       10.33882015       1.48914484       1.48914482      -0.67500000
P        7.35923600       4.42423639       1.49314055      -0.67500000
P       10.31695873       4.41963726       4.41963718      -0.67500000
In       5.89640344       0.02962845       0.02962845       0.67500000
In       8.84624868       0.00457144       2.95706660       0.67500000
In       5.85474405       3.17764413       3.17764407       0.67500000
In       8.84624868       2.95706664       0.00457144       0.67500000
P        7.37223389       1.48865590      10.31393520      -0.67500000
P       10.31393521       1.48865590       7.37223359      -0.67500000
P        7.20500517       4.51482861       7.20500540      -0.67500000
P       10.31456909       4.44383166      10.31456899      -0.67500000
In       5.89529288      -0.00123863       5.89529305       0.67500000
In       8.84134429      -0.00739496       8.84134414       0.67500000
In       5.92185596       2.98948910       8.79919729       0.67500000
In       8.79919723       2.98948950       5.92185569       0.67500000
P        7.20500502       7.20500540       4.51482856      -0.67500000
P       10.31393519       7.37223370       1.48865589      -0.67500000
P        7.37223388      10.31393537       1.48865589      -0.67500000
P       10.31456905      10.31456914       4.44383160      -0.67500000
In       5.89529288       5.89529316      -0.00123863       0.67500000
In       8.79919720       5.92185576       2.98948946       0.67500000
In       5.92185594       8.79919743       2.98948903       0.67500000
In       8.84134429       8.84134428      -0.00739496       0.67500000
P        7.36563731       7.36563696      10.30804715      -0.67500000
P       10.30804749       7.36563726       7.36563714      -0.67500000
P        7.36563730      10.30804733       7.36563683      -0.67500000
P       10.32591003      10.32590977      10.32590960      -0.67500000
In       8.76290683       5.86110192       8.76290647       0.67500000
In       5.86110237       8.76290487       8.76290472       0.67500000
In       8.76290677       8.76290656       5.86110182       0.67500000
63