63
Lattice="11.8016818 -7.6e-06 -7.6e-06 -7.6e-06 11.8016818 -7.8e-06 -7.6e-06 -7.8e-06 11.8016816" Properties=species:S:1:pos:R:3:mulliken_charges:R:1 virial="-0.001343979365248383 3.847269175329341e-05 3.847269175329341e-05 3.847269175329341e-05 -0.001345261788306826 3.847269175329341e-05 3.847269175329341e-05 3.847269175329341e-05 -0.0013426969421899398" fermi_energy=3.4539138232004998 core_to_fermi_energy=15.43004959127955 config_type=Accurate_Bulk energy=-61124.51019101252 pbc="T T T"
P        1.47872097       1.47872091       4.43016759      -0.67500000
P        4.43016775       1.47872098       1.47872088      -0.67500000
P        1.47872099       4.43016773       1.47872083      -0.67500000
P        4.44073779       4.44073776       4.44073763      -0.67500000
In       0.00000076       0.00000074       0.00000074       0.67500000
In       2.95183955       0.00774525       2.95183957       0.67500000
In       0.00774530       2.95183949       2.95183952       0.67500000
In       2.95183955       2.95183954       0.00774527       0.67500000
P        1.47632032       1.47632014      10.32535143      -0.67500000
P        4.42095264       1.47129526       7.38071740      -0.67500000
P        1.47129536       4.42095253       7.38071736      -0.67500000
P        4.42094926       4.42094911      10.33037075      -0.67500000
In      -0.00000262      -0.00000275       5.90084134       0.67500000
In       2.95183586      -0.00775503       8.84983941       0.67500000
In      -0.00775486       2.95183571       8.84983936       0.67500000
In       2.97432703       2.97432693       5.89939369       0.67500000
P        1.47129536       7.38071745       4.42095242      -0.67500000
P        4.42095266       7.38071748       1.47129519      -0.67500000
P        1.47632032      10.32535157       1.47632008      -0.67500000
P        4.42094924      10.33037087       4.42094898      -0.67500000
In      -0.00000262       5.90084144      -0.00000275       0.67500000
In       2.97432704       5.89939377       2.97432697       0.67500000
In      -0.00775486       8.84983959       2.95183574       0.67500000
In       2.95183587       8.84983964      -0.00775505       0.67500000
P        1.47871187       7.37150381      10.32295095      -0.67500000
P        4.44072464       7.36093583       7.36093576      -0.67500000
P        1.47871184      10.32295108       7.37150374      -0.67500000
P        4.43015586      10.32294712      10.32294701      -0.67500000
In      -0.00000717       5.90083728       5.90083718       0.67500000
In       2.97431985       5.90227674       8.82734706       0.67500000
In       0.00773639       8.84983549       8.84983526       0.67500000
In       2.97431984       8.82734730       5.90227661       0.67500000
P        7.38071749       1.47129532       4.42095253      -0.67500000
P       10.32535157       1.47632031       1.47632024      -0.67500000
P        7.38071747       4.42095265       1.47129524      -0.67500000
P       10.33037091       4.42094919       4.42094909      -0.67500000
In       5.90084145      -0.00000265      -0.00000265       0.67500000
In       8.84983966      -0.00775491       2.95183589       0.67500000
In       5.89939382       2.97432701       2.97432704       0.67500000
In       8.84983966       2.95183586      -0.00775494       0.67500000
P        7.37150397       1.47871169      10.32295107      -0.67500000
P       10.32295119       1.47871172       7.37150390      -0.67500000
P        7.36093602       4.44072444       7.36093593      -0.67500000
P       10.32294728       4.43015569      10.32294713      -0.67500000
In       5.90083739      -0.00000728       5.90083728       0.67500000
In       8.84983566       0.00773622       8.84983540       0.67500000
In       5.90227689       2.97431965       8.82734715       0.67500000
In       8.82734744       2.97431971       5.90227671       0.67500000
P        7.36093602       7.36093600       4.44072431      -0.67500000
P       10.32295117       7.37150397       1.47871164      -0.67500000
P        7.37150397      10.32295117       1.47871159      -0.67500000
P       10.32294731      10.32294726       4.43015555      -0.67500000
In       5.90083739       5.90083738      -0.00000728       0.67500000
In       8.82734742       5.90227683       2.97431975       0.67500000
In       5.90227689       8.82734738       2.97431968       0.67500000
In       8.84983565       8.84983563       0.00773624       0.67500000
P        7.38070968       7.38070954      10.33036656      -0.67500000
P       10.33036678       7.38070960       7.38070951      -0.67500000
P        7.38070970      10.33036669       7.38070946      -0.67500000
P       10.32533919      10.32533903      10.32533889      -0.67500000
In       8.82734214       5.89938621       8.82734180       0.67500000
In       5.89938636       8.82734193       8.82734170       0.67500000
In       8.82734215       8.82734204       5.89938613       0.67500000
63
Lattice="11.8016818 -7.6e-06 -7.6e-06 -7.6e-06 11.8016818 -7.8e-06 -7.6e-06 -7.8e-06 11.8016816" Properties=species:S:1:pos:R:3:mulliken_charges:R:1 virial="-0.001343979365248383 3.847269175329341e-05 3.847269175329341e-05 3.847269175329341e-05 -0.001345261788306826 3.847269175329341e-05 3.847269175329341e-05 3.847269175329341e-05 -0.0013426969421899398" fermi_energy=3.4539138232004998 core_to_fermi_energy=15.43004959127955 config_type=Accurate_Bulk energy=-61124.49145961755 pbc="T T T"
P        1.51496511       1.51496506       4.46716665      -0.67500000
P        4.45737990       1.47150213       1.45541796      -0.67500000
P        1.47150213       4.45737989       1.45541790      -0.67500000
P        4.25769250       4.25769247       4.19817941      -0.67500000
In       0.02327488       0.02327486       0.00170379       0.67500000
In       2.98116234       0.04271826       2.97909945       0.67500000
In       0.04271832       2.98116228       2.97909941       0.67500000
In       2.97666480       2.97666478       0.01247990       0.67500000
P        1.50059077       1.50059060      10.32670770      -0.67500000
P        4.48211305       1.50501864       7.41125213      -0.67500000
P        1.50501874       4.48211295       7.41125208      -0.67500000
P        4.44778608       4.44778592      10.33988539      -0.67500000
In       0.01755264       0.01755252       5.88357178       0.67500000
In       2.97151493       0.02382518       8.84123308       0.67500000
In       0.02382535       2.97151476       8.84123303       0.67500000
In       3.00406240       3.00406229       5.98385102       0.67500000
P        1.49378597       7.42236428       4.43601067      -0.67500000
P        4.46550413       7.43045358       1.47071893      -0.67500000
P        1.50440372      10.36595230       1.49111213      -0.67500000
P        4.44700992      10.34889989       4.43568914      -0.67500000
In      -0.01153013       5.91317638      -0.02001791       0.67500000
In       2.94667961       5.98800081       2.91586577       0.67500000
In       0.01540880       8.87542794       2.94504434       0.67500000
In       2.97371295       8.89229314       0.00182225       0.67500000
P        1.49166474       7.40729498      10.34479179      -0.67500000
P        4.51535717       7.32658845       7.31837994      -0.67500000
P        1.49817753      10.34861942       7.36751545      -0.67500000
P        4.44548054      10.32796237      10.29235483      -0.67500000
In       0.02260459       5.92822937       5.90465912       0.67500000
In       3.01840777       5.97112025       8.85436837       0.67500000
In       0.03198285       8.87834209       8.85335708       0.67500000
In       3.01946682       8.84062634       5.93688741       0.67500000
P        7.42236433       1.49378592       4.43601076      -0.67500000
P       10.36595231       1.50440371       1.49111228      -0.67500000
P        7.43045358       4.46550413       1.47071898      -0.67500000
P       10.34889994       4.44700987       4.43568924      -0.67500000
In       5.91317639      -0.01153016      -0.02001781       0.67500000
In       8.87542800       0.01540874       2.94504450       0.67500000
In       5.98800087       2.94667957       2.91586584       0.67500000
In       8.89229315       2.97371294       0.00182236       0.67500000
P        7.40729514       1.49166457      10.34479191      -0.67500000
P       10.34861954       1.49817741       7.36751560      -0.67500000
P        7.32658861       4.51535701       7.31838007      -0.67500000
P       10.32796254       4.44548037      10.29235495      -0.67500000
In       5.92822948       0.02260449       5.90465922       0.67500000
In       8.87834226       0.03198268       8.85335723       0.67500000
In       5.97112041       3.01840757       8.85436846       0.67500000
In       8.84062646       3.01946669       5.93688752       0.67500000
P        7.33357730       7.33357728       4.51767734      -0.67500000
P       10.33812770       7.39011246       1.48388000      -0.67500000
P        7.39011247      10.33812770       1.48387995      -0.67500000
P       10.33712452      10.33712446       4.42254152      -0.67500000
In       5.92809730       5.92809729       0.00087166       0.67500000
In       8.84115056       5.95405644       3.01393392       0.67500000
In       5.95405650       8.84115052       3.01393385       0.67500000
In       8.86876115       8.86876113       0.01075868       0.67500000
P        7.40402995       7.40402980      10.32392993      -0.67500000
P       10.35319556       7.40952905       7.38324411      -0.67500000
P        7.40952915      10.35319547       7.38324406      -0.67500000
P       10.34718446      10.34718430      10.33230578      -0.67500000
In       8.82926002       5.91383738       8.80161466       0.67500000
In       5.91383754       8.82925983       8.80161458       0.67500000
In       8.84193825       8.84193814       5.88771755       0.67500000
63
Lattice="11.8016818 -7.6e-06 -7.6e-06 -7.6e-06 11.8016818 -7.8e-06 -7.6e-06 -7.8e-06 11.8016816" Properties=species:S:1:pos:R:3:mulliken_charges:R:1 virial="-0.001343979365248383 3.847269175329341e-05 3.847269175329341e-05 3.847269175329341e-05 -0.001345261788306826 3.847269175329341e-05 3.847269175329341e-05 3.847269175329341e-05 -0.0013426969421899398" fermi_energy=3.4539138232004998 core_to_fermi_energy=15.43004959127955 config_type=Accurate_Bulk energy=-61124.371934093375 pbc="T T T"
P        1.59213503       1.59213498       4.54078442      -0.67500000
P        4.45297887       1.44518103       1.44405569      -0.67500000
P        1.44518104       4.45297886       1.44405564      -0.67500000
P        4.21226015       4.21226011       4.07615835      -0.67500000
In       0.01788966       0.01788965      -0.00032787       0.67500000
In       2.96699634       0.07123948       3.01774729       0.67500000
In       0.07123953       2.96699628       3.01774724       0.67500000
In       2.96850914       2.96850912       0.02123591       0.67500000
P        1.49666072       1.49666055      10.32321244      -0.67500000
P        4.52106459       1.52191181       7.43527058      -0.67500000
P        1.52191191       4.52106448       7.43527053      -0.67500000
P        4.44309407       4.44309391      10.35689049      -0.67500000
In       0.04646345       0.04646333       5.85003496       0.67500000
In       2.96107203       0.03675777       8.81723637       0.67500000
In       0.03675794       2.96107185       8.81723632       0.67500000
In       3.14453767       3.14453756       6.06140543       0.67500000
P        1.49011947       7.42507977       4.42895197      -0.67500000
P        4.46834006       7.44590041       1.46184336      -0.67500000
P        1.50571570      10.38786043       1.50855481      -0.67500000
P        4.43805221      10.34510652       4.44410213      -0.67500000
In      -0.04394002       5.90368100      -0.02787521       0.67500000
In       2.91881781       6.01042262       2.87457820       0.67500000
In       0.00872287       8.87620317       2.93325404       0.67500000
In       2.97335104       8.92469907       0.00820312       0.67500000
P        1.46563613       7.43511297      10.37977317      -0.67500000
P        4.50454146       7.27989592       7.30813086      -0.67500000
P        1.48777589      10.35017701       7.35475883      -0.67500000
P        4.43822164      10.32332814      10.25743850      -0.67500000
In       0.02505676       5.92572670       5.89850412       0.67500000
In       3.00553849       6.00825596       8.91376044       0.67500000
In       0.02145420       8.87940214       8.84344327       0.67500000
In       3.01959525       8.82891460       5.95041214       0.67500000
P        7.42507982       1.49011942       4.42895207      -0.67500000
P       10.38786044       1.50571569       1.50855496      -0.67500000
P        7.44590041       4.46834006       1.46184341      -0.67500000
P       10.34510657       4.43805216       4.44410224      -0.67500000
In       5.90368101      -0.04394005      -0.02787511       0.67500000
In       8.87620323       0.00872281       2.93325420       0.67500000
In       6.01042268       2.91881777       2.87457826       0.67500000
In       8.92469909       2.97335103       0.00820323       0.67500000
P        7.43511313       1.46563597      10.37977328      -0.67500000
P       10.35017713       1.48777577       7.35475899      -0.67500000
P        7.27989606       4.50454131       7.30813097      -0.67500000
P       10.32332832       4.43822147      10.25743861      -0.67500000
In       5.92572681       0.02505665       5.89850422       0.67500000
In       8.87940231       0.02145403       8.84344342       0.67500000
In       6.00825613       3.00553830       8.91376051       0.67500000
In       8.82891472       3.01959513       5.95041224       0.67500000
P        7.30862425       7.30862423       4.54873094      -0.67500000
P       10.32023111       7.38315130       1.48712721      -0.67500000
P        7.38315132      10.32023111       1.48712715      -0.67500000
P       10.34570641      10.34570636       4.41719748      -0.67500000
In       5.92812191       5.92812190       0.00246349       0.67500000
In       8.83076052       5.95546178       3.03563756       0.67500000
In       5.95546184       8.83076048       3.03563749       0.67500000
In       8.85582598       8.85582596       0.00182084       0.67500000
P        7.39458059       7.39458043      10.30714094      -0.67500000
P       10.34568354       7.40411515       7.37350987      -0.67500000
P        7.40411525      10.34568344       7.37350982      -0.67500000
P       10.34005035      10.34005019      10.33235572      -0.67500000
In       8.80422582       5.89828615       8.77068911       0.67500000
In       5.89828632       8.80422563       8.77068903       0.67500000
In       8.84033811       8.84033800       5.86849895       0.67500000
63
Lattice="11.8016818 -7.6e-06 -7.6e-06 -7.6e-06 11.8016818 -7.8e-06 -7.6e-06 -7.8e-06 11.8016816" Properties=species:S:1:pos:R:3:mulliken_charges:R:1 virial="-0.001343979365248383 3.847269175329341e-05 3.847269175329341e-05 3.847269175329341e-05 -0.001345261788306826 3.847269175329341e-05 3.847269175329341e-05 3.847269175329341e-05 -0.0013426969421899398" fermi_energy=3.4539138232004998 core_to_fermi_energy=15.43004959127955 config_type=Accurate_Bulk energy=-61124.096783832465 pbc="T T T"
P        1.65389541       1.65389537       4.59374770      -0.67500000
P        4.44548915       1.42565173       1.43946768      -0.67500000
P        1.42565174       4.44548914       1.43946763      -0.67500000
P        4.18866253       4.18866249       4.00142047      -0.67500000
In       0.01242971       0.01242969      -0.00119208       0.67500000
In       2.94152054       0.09069930       3.04456799       0.67500000
In       0.09069935       2.94152048       3.04456793       0.67500000
In       2.96229922       2.96229920       0.02844430       0.67500000
P        1.49357619       1.49357602      10.32265404      -0.67500000
P        4.54276050       1.54211436       7.44607731      -0.67500000
P        1.54211446       4.54276039       7.44607725      -0.67500000
P        4.43877845       4.43877829      10.36865837      -0.67500000
In       0.06889802       0.06889791       5.81510931       0.67500000
In       2.95061766       0.05060680       8.79660632       0.67500000
In       0.05060698       2.95061748       8.79660627       0.67500000
In       3.35608234       3.35608223       6.15727419       0.67500000
P        1.48864482       7.42307193       4.42255703      -0.67500000
P        4.46685965       7.45323945       1.45644276      -0.67500000
P        1.50485528      10.39452581       1.51387558      -0.67500000
P        4.42951100      10.34318214       4.44665985      -0.67500000
In      -0.06541740       5.89509896      -0.03003536       0.67500000
In       2.89927521       6.01788075       2.84732299       0.67500000
In       0.00317338       8.87476972       2.92618030       0.67500000
In       2.97417493       8.94291859       0.00747985       0.67500000
P        1.44191034       7.45439173      10.40505916      -0.67500000
P        4.48284904       7.23844724       7.30778818      -0.67500000
P        1.47966682      10.35117272       7.34339514      -0.67500000
P        4.43338231      10.32235456      10.23066444      -0.67500000
In       0.03039783       5.91867696       5.89256241       0.67500000
In       2.98288596       6.03003670       8.96237478       0.67500000
In       0.01248608       8.87942640       8.83360019       0.67500000
In       3.01961024       8.81984356       5.95736127       0.67500000
P        7.42307198       1.48864477       4.42255712      -0.67500000
P       10.39452581       1.50485527       1.51387572      -0.67500000
P        7.45323945       4.46685964       1.45644281      -0.67500000
P       10.34318219       4.42951095       4.44665995      -0.67500000
In       5.89509898      -0.06541743      -0.03003526       0.67500000
In       8.87476978       0.00317332       2.92618046       0.67500000
In       6.01788081       2.89927516       2.84732304       0.67500000
In       8.94291860       2.97417491       0.00747996       0.67500000
P        7.45439189       1.44191018      10.40505927      -0.67500000
P       10.35117283       1.47966670       7.34339530      -0.67500000
P        7.23844738       4.48284890       7.30778828      -0.67500000
P       10.32235474       4.43338214      10.23066456      -0.67500000
In       5.91867707       0.03039772       5.89256251       0.67500000
In       8.87942657       0.01248591       8.83360034       0.67500000
In       6.03003687       2.98288578       8.96237485       0.67500000
In       8.81984368       3.01961011       5.95736137       0.67500000
P        7.28800927       7.28800924       4.56587455      -0.67500000
P       10.30741681       7.37720469       1.48855079      -0.67500000
P        7.37720471      10.30741681       1.48855073      -0.67500000
P       10.34608486      10.34608480       4.41397759      -0.67500000
In       5.92689229       5.92689228       0.00556874       0.67500000
In       8.82334921       5.95542537       3.04873918       0.67500000
In       5.95542544       8.82334917       3.04873911       0.67500000
In       8.84835960       8.84835958      -0.00469146       0.67500000
P        7.38707068       7.38707052      10.29709502      -0.67500000
P       10.33920818       7.39560079       7.36469398      -0.67500000
P        7.39560090      10.33920808       7.36469393      -0.67500000
P       10.33488196      10.33488179      10.32937414      -0.67500000
In       8.78166553       5.88556659       8.74733078       0.67500000
In       5.88556676       8.78166534       8.74733071       0.67500000
In       8.83337148       8.83337137       5.85385731       0.67500000
63
Lattice="11.8016818 -7.6e-06 -7.6e-06 -7.6e-06 11.8016818 -7.8e-06 -7.6e-06 -7.8e-06 11.8016816" Properties=species:S:1:pos:R:3:mulliken_charges:R:1 virial="-0.001343979365248383 3.847269175329341e-05 3.847269175329341e-05 3.847269175329341e-05 -0.001345261788306826 3.847269175329341e-05 3.847269175329341e-05 3.847269175329341e-05 -0.0013426969421899398" fermi_energy=3.4539138232004998 core_to_fermi_energy=15.43004959127955 config_type=Accurate_Bulk energy=-61123.71646927002 pbc="T T T"
P        1.67835125       1.67835121       4.61028853      -0.67500000
P        4.43882725       1.41253515       1.43701485      -0.67500000
P        1.41253516       4.43882724       1.43701481      -0.67500000
P        4.17234851       4.17234846       3.96749898      -0.67500000
In       0.00988694       0.00988692      -0.00223313       0.67500000
In       2.91944558       0.09497161       3.05662157       0.67500000
In       0.09497165       2.91944552       3.05662152       0.67500000
In       2.95704993       2.95704991       0.03243797       0.67500000
P        1.49178709       1.49178692      10.32104102      -0.67500000
P        4.54390396       1.57251327       7.43985813      -0.67500000
P        1.57251337       4.54390384       7.43985807      -0.67500000
P        4.43583763       4.43583747      10.37783658      -0.67500000
In       0.07796308       0.07796296       5.78927189       0.67500000
In       2.94782994       0.06557667       8.78007841       0.67500000
In       0.06557685       2.94782976       8.78007835       0.67500000
In       3.60935360       3.60935348       6.25841827       0.67500000
P        1.48827093       7.41745463       4.41767703      -0.67500000
P        4.46453683       7.45656853       1.45498530      -0.67500000
P        1.50270572      10.39137032       1.51082808      -0.67500000
P        4.42574775      10.34141792       4.44940479      -0.67500000
In      -0.07978712       5.88918347      -0.02982258       0.67500000
In       2.88985517       6.01338557       2.83153914       0.67500000
In       0.00017544       8.87182160       2.92356028       0.67500000
In       2.97538184       8.95113076       0.00488150       0.67500000
P        1.42401066       7.46525610      10.42140646      -0.67500000
P        4.45903185       7.19801202       7.30902748      -0.67500000
P        1.47633325      10.35115956       7.33769692      -0.67500000
P        4.43157885      10.32088108      10.21177232      -0.67500000
In       0.03940116       5.90906805       5.89346560       0.67500000
In       2.95569851       6.03833874       8.99779156       0.67500000
In       0.00569732       8.87939372       8.82770242       0.67500000
In       3.01851176       8.81121496       5.95940228       0.67500000
P        7.41745468       1.48827088       4.41767713      -0.67500000
P       10.39137033       1.50270571       1.51082822      -0.67500000
P        7.45656853       4.46453682       1.45498535      -0.67500000
P       10.34141797       4.42574769       4.44940489      -0.67500000
In       5.88918348      -0.07978715      -0.02982249       0.67500000
In       8.87182167       0.00017537       2.92356043       0.67500000
In       6.01338562       2.88985512       2.83153919       0.67500000
In       8.95113077       2.97538183       0.00488161       0.67500000
P        7.46525626       1.42401050      10.42140656      -0.67500000
P       10.35115968       1.47633313       7.33769708      -0.67500000
P        7.19801216       4.45903171       7.30902758      -0.67500000
P       10.32088126       4.43157868      10.21177243      -0.67500000
In       5.90906817       0.03940105       5.89346570       0.67500000
In       8.87939389       0.00569715       8.82770258       0.67500000
In       6.03833891       2.95569833       8.99779162       0.67500000
In       8.81121508       3.01851164       5.95940239       0.67500000
P        7.27004591       7.27004588       4.57780000      -0.67500000
P       10.29939962       7.37335216       1.48916962      -0.67500000
P        7.37335218      10.29939962       1.48916956      -0.67500000
P       10.34091741      10.34091736       4.41179996      -0.67500000
In       5.92473363       5.92473362       0.01033614       0.67500000
In       8.81787166       5.95780931       3.05720534       0.67500000
In       5.95780938       8.81787163       3.05720528       0.67500000
In       8.84501037       8.84501035      -0.00852036       0.67500000
P        7.38161613       7.38161596      10.29266486      -0.67500000
P       10.33462892       7.38872039       7.35884802      -0.67500000
P        7.38872049      10.33462882       7.35884797      -0.67500000
P       10.33214710      10.33214694      10.32720882      -0.67500000
In       8.76141439       5.87753231       8.72870418       0.67500000
In       5.87753249       8.76141420       8.72870411       0.67500000
In       8.82542862       8.82542851       5.84233047       0.67500000
63
Lattice="11.8016818 -7.6e-06 -7.6e-06 -7.6e-06 11.8016818 -7.8e-06 -7.6e-06 -7.8e-06 11.8016816" Properties=species:S:1:pos:R:3:mulliken_charges:R:1 virial="-0.001343979365248383 3.847269175329341e-05 3.847269175329341e-05 3.847269175329341e-05 -0.001345261788306826 3.847269175329341e-05 3.847269175329341e-05 3.847269175329341e-05 -0.0013426969421899398" fermi_energy=3.4539138232004998 core_to_fermi_energy=15.43004959127955 config_type=Accurate_Bulk energy=-61123.35010413312 pbc="T T T"
P        1.68108953       1.68108950       4.60585725      -0.67500000
P        4.43225704       1.40189575       1.43375109      -0.67500000
P        1.40189575       4.43225703       1.43375105      -0.67500000
P        4.17006630       4.17006626       3.95969769      -0.67500000
In       0.00971827       0.00971825      -0.00399049       0.67500000
In       2.90973591       0.08923012       3.05938927       0.67500000
In       0.08923016       2.90973585       3.05938922       0.67500000
In       2.95131020       2.95131018       0.03339110       0.67500000
P        1.48972812       1.48972795      10.31617682      -0.67500000
P        4.53123414       1.61520942       7.42091875      -0.67500000
P        1.61520952       4.53123402       7.42091869      -0.67500000
P        4.43284183       4.43284167      10.38688160      -0.67500000
In       0.08029939       0.08029928       5.77962750       0.67500000
In       2.95277709       0.08231352       8.76303249       0.67500000
In       0.08231370       2.95277692       8.76303244       0.67500000
In       3.90621820       3.90621809       6.35478926       0.67500000
P        1.48589551       7.40787476       4.41361132      -0.67500000
P        4.46142850       7.45768973       1.45593348      -0.67500000
P        1.49948599      10.38659756       1.50676972      -0.67500000
P        4.42566343      10.33846173       4.45426513      -0.67500000
In      -0.09295976       5.88398680      -0.02908372       0.67500000
In       2.88311859       6.00233869       2.81997177       0.67500000
In      -0.00161916       8.86763734       2.92399386       0.67500000
In       2.97844029       8.95529751       0.00259304       0.67500000
P        1.40786726       7.47275562      10.43564251      -0.67500000
P        4.43084699       7.14562780       7.30712049      -0.67500000
P        1.47630955      10.34860873       7.33605852      -0.67500000
P        4.43090808      10.31715852      10.19441624      -0.67500000
In       0.05005537       5.89677238       5.90284431       0.67500000
In       2.92284753       6.03832411       9.02954365       0.67500000
In      -0.00107694       8.87759799       8.82457667       0.67500000
In       3.01410019       8.80097071       5.95672602       0.67500000
P        7.40787481       1.48589546       4.41361142      -0.67500000
P       10.38659757       1.49948598       1.50676986      -0.67500000
P        7.45768973       4.46142849       1.45593353      -0.67500000
P       10.33846178       4.42566338       4.45426523      -0.67500000
In       5.88398681      -0.09295978      -0.02908363       0.67500000
In       8.86763740      -0.00161922       2.92399401       0.67500000
In       6.00233874       2.88311854       2.81997182       0.67500000
In       8.95529753       2.97844028       0.00259314       0.67500000
P        7.47275577       1.40786710      10.43564261      -0.67500000
P       10.34860884       1.47630943       7.33605868      -0.67500000
P        7.14562795       4.43084685       7.30712058      -0.67500000
P       10.31715871       4.43090791      10.19441635      -0.67500000
In       5.89677250       0.05005526       5.90284441       0.67500000
In       8.87759816      -0.00107711       8.82457683       0.67500000
In       6.03832428       2.92284736       9.02954371       0.67500000
In       8.80097083       3.01410007       5.95672612       0.67500000
P        7.25352604       7.25352602       4.58748596      -0.67500000
P       10.29347867       7.37064172       1.48959853      -0.67500000
P        7.37064174      10.29347867       1.48959848      -0.67500000
P       10.33681397      10.33681392       4.41058422      -0.67500000
In       5.92102391       5.92102390       0.01640584       0.67500000
In       8.81157086       5.96248680       3.06279824       0.67500000
In       5.96248687       8.81157082       3.06279817       0.67500000
In       8.84334389       8.84334386      -0.01135340       0.67500000
P        7.37605924       7.37605908      10.29134717      -0.67500000
P       10.32945401       7.38228425       7.35452482      -0.67500000
P        7.38228436      10.32945391       7.35452477      -0.67500000
P       10.33087846      10.33087830      10.32569181      -0.67500000
In       8.73919487       5.87270708       8.71183899       0.67500000
In       5.87270725       8.73919468       8.71183892       0.67500000
In       8.81751745       8.81751734       5.83155468       0.67500000
63