65
Lattice="11.801682 -8e-06 -8e-06 -8e-06 11.801682 -8e-06 -8e-06 -8e-06 11.801682" Properties=species:S:1:pos:R:3:mulliken_charges:R:1:hirshfeld_charges:R:1 fermi_energy=3.718544537463 core_to_fermi_energy=15.690571930710242 config_type=Interstitial energy=-63090.303584144145 pbc="T T T"
P        1.38700954       1.46161024       4.47186818      -0.64200000      -0.23000000
P        3.97835447       2.20446741       2.20446741      -0.45200000      -0.16000000
P        1.38700954       4.47186818       1.46161024      -0.64200000      -0.23000000
P        4.45635557       4.50251677       4.50251677      -0.66200000      -0.24000000
P        1.38684907       1.44330028      10.23467239      -0.64200000      -0.23000000
P        4.41165220       1.45250519       7.35334649      -0.67600000      -0.24000000
P        1.46619518       4.39992237       7.34972587      -0.67400000      -0.24000000
P        4.41079936       4.38653833      10.32013365      -0.67200000      -0.23000000
P        1.46619518       7.34972587       4.39992237      -0.67400000      -0.24000000
P        4.41165220       7.35334649       1.45250519      -0.67600000      -0.24000000
P        1.38684907      10.23467239       1.44330028      -0.64200000      -0.23000000
P        4.41079936      10.32013365       4.38653833      -0.67200000      -0.23000000
P        1.46616345       7.35691052      10.30672368      -0.67400000      -0.24000000
P        4.38033039       7.35339019       7.35339019      -0.68100000      -0.24000000
P        1.46616345      10.30672368       7.35691052      -0.67400000      -0.24000000
P        4.45625008      10.20431871      10.20431871      -0.66200000      -0.24000000
P        7.42901771       1.43280094       4.44043503      -0.67600000      -0.24000000
P       10.33578748       1.45249511       1.45249511      -0.67700000      -0.24000000
P        7.42901771       4.44043503       1.43280094      -0.67600000      -0.24000000
P       10.31003545       4.42077811       4.42077811      -0.67400000      -0.24000000
P        7.42893030       1.47220225      10.26630970      -0.67600000      -0.24000000
P       10.28743245       1.45247459       7.35333499      -0.68000000      -0.24000000
P        7.36434969       4.41191052       7.37196165      -0.67500000      -0.24000000
P       10.32611482       4.41566236      10.29101417      -0.67600000      -0.24000000
P        7.36434969       7.37196165       4.41191052      -0.67500000      -0.24000000
P       10.28743245       7.35333499       1.45247459      -0.68000000      -0.24000000
P        7.42893030      10.26630970       1.47220225      -0.67600000      -0.24000000
P       10.32611482      10.29101417       4.41566236      -0.67600000      -0.24000000
P        7.36429298       7.33473922      10.29478519      -0.67500000      -0.24000000
P       10.31850074       7.35333258       7.35333258      -0.67500000      -0.24000000
P        7.36429298      10.29478519       7.33473922      -0.67500000      -0.24000000
P       10.30995695      10.28586410      10.28586410      -0.67400000      -0.24000000
In      -0.02559173      -0.03749720      -0.03749720       0.67600000       0.24000000
In       2.76170254      -0.10581234       3.01058608       0.73400000       0.26000000
In      -0.02550899       2.94246803       2.94246803       0.67600000       0.24000000
In       2.76170254       3.01058608      -0.10581234       0.73400000       0.26000000
In      -0.04999447      -0.03162577       5.92263200       0.65600000       0.23000000
In       2.96077815      -0.03823247       8.84095303       0.68200000       0.25000000
In      -0.05005860       2.93667709       8.78398580       0.65600000       0.23000000
In       2.96084137       2.94321985       5.86565273       0.68200000       0.25000000
In      -0.04999447       5.92263200      -0.03162577       0.65600000       0.23000000
In       2.96084137       5.86565273       2.94321985       0.68200000       0.25000000
In      -0.05005860       8.78398580       2.93667709       0.65600000       0.23000000
In       2.96077815       8.84095303      -0.03823247       0.68200000       0.25000000
In       0.00268898       5.88526225       5.88526225       0.68000000       0.24000000
In       2.93447233       5.87185481       8.83480718       0.68600000       0.24000000
In       0.00266772       8.82142014       8.82142014       0.68000000       0.24000000
In       2.93447233       8.83480718       5.87185481       0.68600000       0.24000000
In       6.09640594      -0.19701792      -0.19701792       0.63300000       0.22000000
In       8.88444310      -0.02659566       2.93160165       0.68600000       0.24000000
In       6.09662143       3.10220351       3.10220351       0.63300000       0.22000000
In       8.88444310       2.93160165      -0.02659566       0.68600000       0.24000000
In       5.88452437      -0.01335983       5.87739192       0.68700000       0.24000000
In       8.85164863      -0.04076638       8.80347178       0.67800000       0.24000000
In       5.88453057       2.91839372       8.82928158       0.68700000       0.24000000
In       8.85171537       2.94578328       5.90323653       0.67800000       0.24000000
In       5.88452437       5.87739192      -0.01335983       0.68700000       0.24000000
In       8.85171537       5.90323653       2.94578328       0.67800000       0.24000000
In       5.88453057       8.82928158       2.91839372       0.68700000       0.24000000
In       8.85164863       8.80347178      -0.04076638       0.67800000       0.24000000
In       5.91060720       5.94249918       5.94249918       0.66100000       0.23000000
In       8.84897263       5.87653315       8.83018525       0.67900000       0.24000000
In       5.91052827       8.76432386       8.76432386       0.66100000       0.23000000
In       8.84897263       8.83018525       5.87653315       0.67900000       0.24000000
P        3.97830130       0.70105477       0.70105477      -0.45200000      -0.16000000
65
Lattice="11.801682 -8e-06 -8e-06 -8e-06 11.801682 -8e-06 -8e-06 -8e-06 11.801682" Properties=species:S:1:pos:R:3:mulliken_charges:R:1:hirshfeld_charges:R:1 fermi_energy=3.718544537463 core_to_fermi_energy=15.690571930710242 config_type=Interstitial energy=-63090.339658653116 pbc="T T T"
P        1.31030609       1.49751309       4.57711405      -0.64200000      -0.23000000
P        3.95445274       1.99568790       2.27197971      -0.45200000      -0.16000000
P        1.45697731       4.39978613       1.42908776      -0.64200000      -0.23000000
P        4.44132823       4.47752516       4.49922075      -0.66200000      -0.24000000
P        1.32982947       1.43060718      10.15621143      -0.64200000      -0.23000000
P        4.41718192       1.45362743       7.35750092      -0.67600000      -0.24000000
P        1.45270404       4.43653421       7.36451476      -0.67400000      -0.24000000
P        4.42865801       4.43091985      10.27853740      -0.67200000      -0.23000000
P        1.46544455       7.34008418       4.37329266      -0.67400000      -0.24000000
P        4.41443727       7.35399856       1.45484025      -0.67600000      -0.24000000
P        1.48664935      10.33518177       1.48847353      -0.64200000      -0.23000000
P        4.42524460      10.27603613       4.44474797      -0.67200000      -0.23000000
P        1.47336157       7.37998331      10.34434823      -0.67400000      -0.24000000
P        4.39079140       7.34067348       7.34701385      -0.68100000      -0.24000000
P        1.45566708      10.27995746       7.35424705      -0.67400000      -0.24000000
P        4.45936601      10.20031531      10.17838162      -0.66200000      -0.24000000
P        7.42490774       1.41577364       4.44496738      -0.67600000      -0.24000000
P       10.33743095       1.45401114       1.45665981      -0.67700000      -0.24000000
P        7.39069055       4.40917245       1.45055403      -0.67600000      -0.24000000
P       10.31170285       4.42534919       4.40188082      -0.67400000      -0.24000000
P        7.45001605       1.49193597      10.24964641      -0.67600000      -0.24000000
P       10.25115945       1.45782551       7.35208901      -0.68000000      -0.24000000
P        7.37646606       4.41933193       7.35528846      -0.67500000      -0.24000000
P       10.32660596       4.42897312      10.30742810      -0.67600000      -0.24000000
P        7.36255569       7.37050856       4.40331396      -0.67500000      -0.24000000
P       10.30692002       7.35647912       1.45946696      -0.68000000      -0.24000000
P        7.39950523      10.29166674       1.45343638      -0.67600000      -0.24000000
P       10.32783325      10.28272756       4.39931297      -0.67600000      -0.24000000
P        7.37300944       7.33542771      10.30279525      -0.67500000      -0.24000000
P       10.32112323       7.35578305       7.35658641      -0.67500000      -0.24000000
P        7.38897837      10.28527284       7.34920574      -0.67500000      -0.24000000
P       10.32541097      10.28900950      10.31657520      -0.67400000      -0.24000000
In       0.00354271      -0.02229421      -0.02023358       0.67600000       0.24000000
In       2.75776960      -0.05764606       3.22244153       0.73400000       0.26000000
In      -0.01230678       2.94062430       2.93675883       0.67600000       0.24000000
In       2.77067448       2.98545774      -0.26017814       0.73400000       0.26000000
In      -0.09556921      -0.05798815       5.96342764       0.65600000       0.23000000
In       2.94896380      -0.04561834       8.81773846       0.68200000       0.25000000
In      -0.09011538       2.96123610       8.75526267       0.65600000       0.23000000
In       2.94278403       2.95717067       5.90843540       0.68200000       0.25000000
In      -0.01721852       5.90313188      -0.00442310       0.65600000       0.23000000
In       2.96601671       5.84685566       2.92855968       0.68200000       0.25000000
In      -0.00320213       8.82515380       2.90254713       0.65600000       0.23000000
In       2.98311534       8.87763415      -0.01722178       0.68200000       0.25000000
In      -0.00548798       5.89655047       5.86944901       0.68000000       0.24000000
In       2.92337560       5.91141539       8.84196631       0.68600000       0.24000000
In      -0.00177679       8.81491912       8.84384815       0.68000000       0.24000000
In       2.92173337       8.79576647       5.88047021       0.68600000       0.24000000
In       6.08781484      -0.16749519      -0.24535385       0.63300000       0.22000000
In       8.87844547      -0.02881515       2.92725577       0.68600000       0.24000000
In       6.04227854       3.04228591       3.10652415       0.63300000       0.22000000
In       8.88393668       2.93672943      -0.01862356       0.68600000       0.24000000
In       5.89820097      -0.02993731       5.90188546       0.68700000       0.24000000
In       8.86614761      -0.04658418       8.82536723       0.67800000       0.24000000
In       5.89723748       2.93230040       8.81630939       0.68700000       0.24000000
In       8.84653750       2.94813379       5.87658897       0.67800000       0.24000000
In       5.89036539       5.88253573      -0.00911902       0.68700000       0.24000000
In       8.84136297       5.89894009       2.93330199       0.67800000       0.24000000
In       5.88490245       8.83294560       2.91452328       0.68700000       0.24000000
In       8.85268610       8.80638937      -0.02646256       0.67800000       0.24000000
In       5.90832497       5.92884932       5.92204756       0.66100000       0.23000000
In       8.85214414       5.87874122       8.83325564       0.67900000       0.24000000
In       5.92256107       8.75039689       8.75740226       0.66100000       0.23000000
In       8.85540937       8.82280266       5.86663269       0.67900000       0.24000000
P        3.95927581       0.82759742       0.51709951      -0.45200000      -0.16000000
65
Lattice="11.801682 -8e-06 -8e-06 -8e-06 11.801682 -8e-06 -8e-06 -8e-06 11.801682" Properties=species:S:1:pos:R:3:mulliken_charges:R:1:hirshfeld_charges:R:1 fermi_energy=3.718544537463 core_to_fermi_energy=15.690571930710242 config_type=Interstitial energy=-63090.33876695788 pbc="T T T"
P        1.31244297       1.48120021       4.57145865      -0.64200000      -0.23000000
P        3.97346022       1.98246295       2.35246925      -0.45200000      -0.16000000
P        1.48245926       4.37865211       1.42293303      -0.64200000      -0.23000000
P        4.44614459       4.48973192       4.50897466      -0.66200000      -0.24000000
P        1.32386053       1.43026789      10.14338237      -0.64200000      -0.23000000
P        4.41596585       1.45460612       7.35177013      -0.67600000      -0.24000000
P        1.45232548       4.43386116       7.35352998      -0.67400000      -0.24000000
P        4.43416521       4.44084144      10.26190624      -0.67200000      -0.23000000
P        1.46575894       7.33556916       4.36650731      -0.67400000      -0.24000000
P        4.41302159       7.35589815       1.45024921      -0.67600000      -0.24000000
P        1.48163765      10.32915210       1.48620347      -0.64200000      -0.23000000
P        4.43127910      10.25259721       4.46167839      -0.67200000      -0.23000000
P        1.46735322       7.37326411      10.34020656      -0.67400000      -0.24000000
P        4.39446714       7.34309863       7.35636043      -0.68100000      -0.24000000
P        1.44765187      10.27370667       7.35171257      -0.67400000      -0.24000000
P        4.44382455      10.21294792      10.18232245      -0.66200000      -0.24000000
P        7.43864358       1.41934691       4.45613380      -0.67600000      -0.24000000
P       10.33511350       1.45532493       1.45030228      -0.67700000      -0.24000000
P        7.39149696       4.41301505       1.44593819      -0.67600000      -0.24000000
P       10.32163627       4.41901543       4.39077175      -0.67400000      -0.24000000
P        7.43457612       1.49357634      10.25050176      -0.67600000      -0.24000000
P       10.25112868       1.45260541       7.35769709      -0.68000000      -0.24000000
P        7.38732655       4.42513066       7.35222013      -0.67500000      -0.24000000
P       10.32665667       4.42871434      10.30606221      -0.67600000      -0.24000000
P        7.36939252       7.36840427       4.39775131      -0.67500000      -0.24000000
P       10.30942926       7.35305556       1.45003146      -0.68000000      -0.24000000
P        7.38355640      10.30446837       1.45093499      -0.67600000      -0.24000000
P       10.32169781      10.28153285       4.39157823      -0.67600000      -0.24000000
P        7.37182658       7.34591182      10.30346190      -0.67500000      -0.24000000
P       10.32000619       7.35642261       7.35123160      -0.67500000      -0.24000000
P        7.38680853      10.28737055       7.35025355      -0.67500000      -0.24000000
P       10.32169227      10.29178010      10.31886184      -0.67400000      -0.24000000
In       0.00472186      -0.01980825      -0.02308751       0.67600000       0.24000000
In       2.76370946      -0.09352645       3.23485207       0.73400000       0.26000000
In       0.00078307       2.92887364       2.92818306       0.67600000       0.24000000
In       2.78339846       2.97895781      -0.29378078       0.73400000       0.26000000
In      -0.10315952      -0.06301845       5.95998072       0.65600000       0.23000000
In       2.93917158      -0.04348440       8.80522909       0.68200000       0.25000000
In      -0.09192388       2.96580202       8.74781358       0.65600000       0.23000000
In       2.94244774       2.95169770       5.89598378       0.68200000       0.25000000
In      -0.00556269       5.88661601       0.00103777       0.65600000       0.23000000
In       2.97298536       5.84224344       2.92450023       0.68200000       0.25000000
In      -0.00847621       8.81939538       2.90020831       0.65600000       0.23000000
In       2.97347239       8.87160922      -0.02182730       0.68200000       0.25000000
In      -0.00749959       5.89554947       5.86250251       0.68000000       0.24000000
In       2.91720682       5.91065678       8.83369558       0.68600000       0.24000000
In      -0.00984921       8.81347797       8.84612400       0.68000000       0.24000000
In       2.91509446       8.78108932       5.88912937       0.68600000       0.24000000
In       6.05492762      -0.14995678      -0.23856857       0.63300000       0.22000000
In       8.87395918      -0.02367218       2.92290039       0.68600000       0.24000000
In       6.06531889       3.05930194       3.12796958       0.63300000       0.22000000
In       8.87905276       2.93605908      -0.02491957       0.68600000       0.24000000
In       5.89923981      -0.02798262       5.89876444       0.68700000       0.24000000
In       8.85741559      -0.04474221       8.83165277       0.67800000       0.24000000
In       5.89994135       2.93922771       8.80263184       0.68700000       0.24000000
In       8.86274643       2.95143731       5.88043517       0.67800000       0.24000000
In       5.89028949       5.88753651      -0.01395650       0.68700000       0.24000000
In       8.84922446       5.89702516       2.92759053       0.67800000       0.24000000
In       5.88666312       8.82829343       2.91347811       0.68700000       0.24000000
In       8.84656954       8.81617021      -0.02031770       0.67800000       0.24000000
In       5.91608198       5.93976579       5.92773614       0.66100000       0.23000000
In       8.85371938       5.88713033       8.83740236       0.67900000       0.24000000
In       5.91622656       8.76473503       8.76597856       0.66100000       0.23000000
In       8.85233150       8.82549230       5.86498413       0.67900000       0.24000000
P        3.95022969       0.87151867       0.56713084      -0.45200000      -0.16000000
65
Lattice="11.801682 -8e-06 -8e-06 -8e-06 11.801682 -8e-06 -8e-06 -8e-06 11.801682" Properties=species:S:1:pos:R:3:mulliken_charges:R:1:hirshfeld_charges:R:1 fermi_energy=3.718544537463 core_to_fermi_energy=15.690571930710242 config_type=Interstitial energy=-63090.32163396204 pbc="T T T"
P        1.31072874       1.47533889       4.56695919      -0.64200000      -0.23000000
P        4.02916087       1.90856869       2.39014864      -0.45200000      -0.16000000
P        1.48766394       4.37731318       1.42749480      -0.64200000      -0.23000000
P        4.44157117       4.49018516       4.50303819      -0.66200000      -0.24000000
P        1.33205322       1.44261090      10.14994801      -0.64200000      -0.23000000
P        4.41353463       1.45620666       7.34987469      -0.67600000      -0.24000000
P        1.45208213       4.43255687       7.34631376      -0.67400000      -0.24000000
P        4.43719079       4.44613121      10.25821805      -0.67200000      -0.23000000
P        1.46065510       7.33917059       4.36749961      -0.67400000      -0.24000000
P        4.41106017       7.35934794       1.44786422      -0.67600000      -0.24000000
P        1.48285597      10.33003218       1.48405386      -0.64200000      -0.23000000
P        4.43194794      10.22954834       4.48334725      -0.67200000      -0.23000000
P        1.46399458       7.37092218      10.33713802      -0.67400000      -0.24000000
P        4.39630385       7.33279749       7.36016467      -0.68100000      -0.24000000
P        1.44171855      10.27535340       7.35442430      -0.67400000      -0.24000000
P        4.43600351      10.20894476      10.17321047      -0.66200000      -0.24000000
P        7.44409842       1.42809287       4.46524514      -0.67600000      -0.24000000
P       10.33184414       1.45746372       1.44774806      -0.67700000      -0.24000000
P        7.39441875       4.42170137       1.43587717      -0.67600000      -0.24000000
P       10.32232622       4.41810009       4.38836175      -0.67400000      -0.24000000
P        7.42965144       1.49459765      10.24650333      -0.67600000      -0.24000000
P       10.25611347       1.45152599       7.36280555      -0.68000000      -0.24000000
P        7.38895816       4.42920753       7.35052468      -0.67500000      -0.24000000
P       10.32645094       4.42873070      10.30273967      -0.67600000      -0.24000000
P        7.37021331       7.36748607       4.39294078      -0.67500000      -0.24000000
P       10.31084454       7.35419780       1.44556125      -0.68000000      -0.24000000
P        7.37099151      10.31494242       1.44813437      -0.67600000      -0.24000000
P       10.31536230      10.28420285       4.38441720      -0.67600000      -0.24000000
P        7.37392461       7.35578304      10.30210152      -0.67500000      -0.24000000
P       10.31791151       7.35894468       7.34906524      -0.67500000      -0.24000000
P        7.38649693      10.29057573       7.34654048      -0.67500000      -0.24000000
P       10.32084524      10.29711014      10.32279075      -0.67400000      -0.24000000
In       0.00842046      -0.01244920      -0.02460222       0.67600000       0.24000000
In       2.76177037      -0.12472922       3.25814687       0.73400000       0.26000000
In       0.00077319       2.92625397       2.92579490       0.67600000       0.24000000
In       2.80184321       2.98335616      -0.28164129       0.73400000       0.26000000
In      -0.10868533      -0.06540572       5.95661106       0.65600000       0.23000000
In       2.93305099      -0.03815613       8.80526081       0.68200000       0.25000000
In      -0.08618287       2.96674971       8.74842147       0.65600000       0.23000000
In       2.94044787       2.94680724       5.88854083       0.68200000       0.25000000
In      -0.00396069       5.88232924      -0.00059597       0.65600000       0.23000000
In       2.97007084       5.85047032       2.92462680       0.68200000       0.25000000
In      -0.01079390       8.82245738       2.89649860       0.65600000       0.23000000
In       2.96908003       8.87020137      -0.02559321       0.68200000       0.25000000
In      -0.01082493       5.89607499       5.86081514       0.68000000       0.24000000
In       2.91266242       5.90540719       8.83292686       0.68600000       0.24000000
In      -0.01616904       8.81562204       8.84859548       0.68000000       0.24000000
In       2.90759980       8.76852795       5.90588215       0.68600000       0.24000000
In       6.04066770      -0.14826982      -0.25235601       0.63300000       0.22000000
In       8.86490586      -0.01579018       2.92115654       0.68600000       0.24000000
In       6.08344481       3.07783569       3.13241281       0.63300000       0.22000000
In       8.87737877       2.93539923      -0.03057182       0.68600000       0.24000000
In       5.89666701      -0.02483520       5.89558707       0.68700000       0.24000000
In       8.85558624      -0.04424516       8.83176831       0.67800000       0.24000000
In       5.89959703       2.94314910       8.79754112       0.68700000       0.24000000
In       8.87162162       2.95381190       5.88871686       0.67800000       0.24000000
In       5.88986518       5.89755997      -0.02085003       0.68700000       0.24000000
In       8.85311338       5.89904508       2.92419986       0.67800000       0.24000000
In       5.88489643       8.82935484       2.91311530       0.68700000       0.24000000
In       8.84296055       8.82560526      -0.01485675       0.67800000       0.24000000
In       5.91621508       5.93841941       5.92136689       0.66100000       0.23000000
In       8.85284304       5.89202642       8.83830429       0.67900000       0.24000000
In       5.91592119       8.76646107       8.75966930       0.66100000       0.23000000
In       8.85038379       8.82711011       5.86143222       0.67900000       0.24000000
P        3.94312317       0.87316962       0.56946144      -0.45200000      -0.16000000
65
Lattice="11.801682 -8e-06 -8e-06 -8e-06 11.801682 -8e-06 -8e-06 -8e-06 11.801682" Properties=species:S:1:pos:R:3:mulliken_charges:R:1:hirshfeld_charges:R:1 fermi_energy=3.718544537463 core_to_fermi_energy=15.690571930710242 config_type=Interstitial energy=-63090.28347100133 pbc="T T T"
P        1.31084079       1.47207235       4.55927305      -0.64200000      -0.23000000
P        4.11938931       1.80481595       2.43514930      -0.45200000      -0.16000000
P        1.48991830       4.37868485       1.43105348      -0.64200000      -0.23000000
P        4.43472750       4.49076975       4.49710817      -0.66200000      -0.24000000
P        1.33790155       1.45278963      10.15423971      -0.64200000      -0.23000000
P        4.41140093       1.45713203       7.34827905      -0.67600000      -0.24000000
P        1.45210101       4.43110042       7.34023840      -0.67400000      -0.24000000
P        4.43882112       4.45210031      10.25317836      -0.67200000      -0.23000000
P        1.45564195       7.34229408       4.36867020      -0.67400000      -0.24000000
P        4.40996415       7.36294864       1.44619248      -0.67600000      -0.24000000
P        1.48241756      10.33005926       1.48093097      -0.64200000      -0.23000000
P        4.43098261      10.20824541       4.50207608      -0.67200000      -0.23000000
P        1.46131257       7.36916944      10.33415792      -0.67400000      -0.24000000
P        4.39751333       7.32545337       7.36294163      -0.68100000      -0.24000000
P        1.43759074      10.27746482       7.35622015      -0.67400000      -0.24000000
P        4.42993008      10.20491108      10.16761484      -0.66200000      -0.24000000
P        7.44801996       1.43734821       4.47386116      -0.67600000      -0.24000000
P       10.32854245       1.45847993       1.44603618      -0.67700000      -0.24000000
P        7.39824824       4.43160683       1.42510152      -0.67600000      -0.24000000
P       10.32171760       4.41789539       4.38688953      -0.67400000      -0.24000000
P        7.42461075       1.49454507      10.24464466      -0.67600000      -0.24000000
P       10.26000520       1.45041718       7.36614884      -0.68000000      -0.24000000
P        7.38930071       4.43219263       7.34903955      -0.67500000      -0.24000000
P       10.32615440       4.42797146      10.30009366      -0.67600000      -0.24000000
P        7.37033667       7.36701458       4.38977130      -0.67500000      -0.24000000
P       10.31111497       7.35611541       1.44208780      -0.68000000      -0.24000000
P        7.35921782      10.32441302       1.44527630      -0.67600000      -0.24000000
P       10.31006731      10.28725284       4.37919142      -0.67600000      -0.24000000
P        7.37515601       7.36303572      10.30051784      -0.67500000      -0.24000000
P       10.31630770       7.36055598       7.34778463      -0.67500000      -0.24000000
P        7.38501328      10.29395453       7.34257134      -0.67500000      -0.24000000
P       10.31945151      10.30109735      10.32523444      -0.67400000      -0.24000000
In       0.01035679      -0.00638558      -0.02703118       0.67600000       0.24000000
In       2.75795043      -0.15487049       3.27578909       0.73400000       0.26000000
In      -0.00169981       2.92580079       2.92275960       0.67600000       0.24000000
In       2.81298384       2.99336399      -0.27508420       0.73400000       0.26000000
In      -0.11130445      -0.06561586       5.95262776       0.65600000       0.23000000
In       2.92875662      -0.03447782       8.80688397       0.68200000       0.25000000
In      -0.08214212       2.96707122       8.74798234       0.65600000       0.23000000
In       2.93853323       2.94144432       5.88215500       0.68200000       0.25000000
In      -0.00444686       5.88076988      -0.00317683       0.65600000       0.23000000
In       2.96635225       5.85987063       2.92344859       0.68200000       0.25000000
In      -0.01351583       8.82516639       2.89393873       0.65600000       0.23000000
In       2.96469290       8.86839598      -0.02818915       0.68200000       0.25000000
In      -0.01362059       5.89612478       5.85992312       0.68000000       0.24000000
In       2.90918220       5.90208174       8.83120591       0.68600000       0.24000000
In      -0.02089076       8.81796947       8.84988527       0.68000000       0.24000000
In       2.90113971       8.75824074       5.91917919       0.68600000       0.24000000
In       6.02321470      -0.14382059      -0.26123816       0.63300000       0.22000000
In       8.85580067      -0.00893195       2.92042935       0.68600000       0.24000000
In       6.10413965       3.10403157       3.13884438       0.63300000       0.22000000
In       8.87606324       2.93398246      -0.03492952       0.68600000       0.24000000
In       5.89260633      -0.02221466       5.89094454       0.68700000       0.24000000
In       8.85312206      -0.04400842       8.83148783       0.67800000       0.24000000
In       5.89939547       2.94576532       8.79433485       0.68700000       0.24000000
In       8.87853729       2.95587087       5.89620155       0.67800000       0.24000000
In       5.88781255       5.90611441      -0.02756148       0.68700000       0.24000000
In       8.85606454       5.90216884       2.92195278       0.67800000       0.24000000
In       5.88339966       8.83135828       2.91362104       0.68700000       0.24000000
In       8.83868227       8.83325171      -0.01136590       0.67800000       0.24000000
In       5.91519767       5.93741316       5.91647253       0.66100000       0.23000000
In       8.85181565       5.89515603       8.83899014       0.67900000       0.24000000
In       5.91582295       8.76827790       8.75488955       0.66100000       0.23000000
In       8.84899991       8.82862934       5.85978349       0.67900000       0.24000000