65
Lattice="11.801682 -8e-06 -8e-06 -8e-06 11.801682 -8e-06 -8e-06 -8e-06 11.801682" Properties=species:S:1:pos:R:3:mulliken_charges:R:1:hirshfeld_charges:R:1 fermi_energy=3.718544537463 core_to_fermi_energy=15.690571930710242 config_type=Interstitial energy=-63090.30358414419 pbc="T T T"
P        1.38685303       1.38340884       4.39372675      -0.64200000      -0.23000000
P        4.45626205       1.35306326       1.35306326      -0.45200000      -0.16000000
P        1.38685303       4.39372675       1.38340884      -0.64200000      -0.23000000
P        3.97835046       5.15488604       5.15488604      -0.66200000      -0.24000000
P        1.46616744       1.45546017      10.30733700      -0.64200000      -0.23000000
P        4.41080336       1.46887014       7.33696482      -0.67600000      -0.24000000
P        1.38700558       4.41202871       7.42228663      -0.67400000      -0.24000000
P        4.41164820       4.40292369      10.30376499      -0.67200000      -0.23000000
P        1.38700558       7.42228663       4.41202871      -0.67400000      -0.24000000
P        4.41080336       7.33696482       1.46887014      -0.67600000      -0.24000000
P        1.46616744      10.30733700       1.45546017      -0.64200000      -0.23000000
P        4.41164820      10.30376499       4.40292369      -0.67200000      -0.23000000
P        1.46619119       7.35034086      10.30014436      -0.67400000      -0.24000000
P        4.45635160       7.45293531       7.45293531      -0.68100000      -0.24000000
P        1.46619119      10.30014436       7.35034086      -0.67400000      -0.24000000
P        4.38032639      10.30380871      10.30380871      -0.66200000      -0.24000000
P        7.42893428       1.41504621       4.42262875      -0.67600000      -0.24000000
P       10.30996894       1.43460858       1.43460858      -0.67700000      -0.24000000
P        7.42893428       4.42262875       1.41504621      -0.67600000      -0.24000000
P       10.33578348       4.40291360       4.40291360      -0.67400000      -0.24000000
P        7.36429697       1.44352169      10.28516572      -0.67600000      -0.24000000
P       10.32611882       1.43975066       7.36608886      -0.68000000      -0.24000000
P        7.42901372       4.38321944       7.39085354      -0.67500000      -0.24000000
P       10.28742845       4.40289308      10.30375348      -0.67600000      -0.24000000
P        7.42901372       7.39085354       4.38321944      -0.67500000      -0.24000000
P       10.32611882       7.36608886       1.43975066      -0.68000000      -0.24000000
P        7.36429697      10.28516572       1.44352169      -0.67600000      -0.24000000
P       10.28742845      10.30375348       4.40289308      -0.67600000      -0.24000000
P        7.36434570       7.36232902      10.32238015      -0.67500000      -0.24000000
P       10.31003147       7.37119660       7.37119660      -0.67500000      -0.24000000
P        7.36434570      10.32238015       7.36232902      -0.67500000      -0.24000000
P       10.31849674      10.30375108      10.30375108      -0.67400000      -0.24000000
In       0.00267971      -0.02983536      -0.02983536       0.67600000       0.24000000
In       2.96078213      -0.01031050       2.91219403       0.73400000       0.26000000
In      -0.02559575       2.91292128       2.91292128       0.67600000       0.24000000
In       2.96078213       2.91219403      -0.01031050       0.73400000       0.26000000
In      -0.05005461      -0.06727773       5.88710360       0.65600000       0.23000000
In       2.93447633      -0.01645633       8.82228130       0.68200000       0.25000000
In      -0.04999846       2.91879274       8.87305047       0.65600000       0.23000000
In       2.76169854       2.84460610       5.96100452       0.68200000       0.25000000
In      -0.05005461       5.88710360      -0.06727773       0.65600000       0.23000000
In       2.76169854       5.96100452       2.84460610       0.68200000       0.25000000
In      -0.04999846       8.87305047       2.91879274       0.65600000       0.23000000
In       2.93447633       8.82228130      -0.01645633       0.68200000       0.25000000
In      -0.02551296       5.89288651       5.89288651       0.68000000       0.24000000
In       2.96083739       5.89363834       8.81607120       0.68600000       0.24000000
In       0.00268499       8.83568075       8.83568075       0.68000000       0.24000000
In       2.96083739       8.81607120       5.89363834       0.68600000       0.24000000
In       5.91054026      -0.08693161      -0.08693161       0.63300000       0.22000000
In       8.85165261      -0.04779172       2.90966012       0.68600000       0.24000000
In       6.09640186       2.75340063       2.75340063       0.63300000       0.22000000
In       8.85165261       2.90966012      -0.04779172       0.68600000       0.24000000
In       5.88453458      -0.02198193       5.86882022       0.68700000       0.24000000
In       8.84897664      -0.02107825       8.82695966       0.67800000       0.24000000
In       5.88452037       2.93705868       8.82781042       0.68700000       0.24000000
In       8.88443910       2.92382284       5.88202015       0.67800000       0.24000000
In       5.88453458       5.86882022      -0.02198193       0.68700000       0.24000000
In       8.88443910       5.88202015       2.92382284       0.67800000       0.24000000
In       5.88452037       8.82781042       2.93705868       0.68700000       0.24000000
In       8.84897664       8.82695966      -0.02107825       0.67800000       0.24000000
In       6.09661751       6.05262205       6.05262205       0.66100000       0.23000000
In       8.85171139       5.89620178       8.85365503       0.67900000       0.24000000
In       5.91060322       8.89291771       8.89291771       0.66100000       0.23000000
In       8.85171139       8.85365503       5.89620178       0.67900000       0.24000000
P        3.97829731       3.65147340       3.65147340      -0.45200000      -0.16000000
65
Lattice="11.801682 -8e-06 -8e-06 -8e-06 11.801682 -8e-06 -8e-06 -8e-06 11.801682" Properties=species:S:1:pos:R:3:mulliken_charges:R:1:hirshfeld_charges:R:1 fermi_energy=3.718544537463 core_to_fermi_energy=15.690571930710242 config_type=Interstitial energy=-63090.30829028769 pbc="T T T"
P        1.41140231       1.39760076       4.39834357      -0.64200000      -0.23000000
P        4.47029497       1.31960366       1.31940097      -0.45200000      -0.16000000
P        1.41140231       4.39854626       1.39739807      -0.64200000      -0.23000000
P        3.96898125       5.06903293       5.06883024      -0.66200000      -0.24000000
P        1.46940101       1.45289785      10.30580443      -0.64200000      -0.23000000
P        4.41101585       1.46049541       7.33157280      -0.67600000      -0.24000000
P        1.36534064       4.41785888       7.43661057      -0.67400000      -0.24000000
P        4.41215023       4.39313454      10.29493981      -0.67200000      -0.23000000
P        1.36534064       7.43681326       4.41765619      -0.67400000      -0.24000000
P        4.41101585       7.33177549       1.46029273      -0.67600000      -0.24000000
P        1.46940101      10.30600712       1.45269516      -0.64200000      -0.23000000
P        4.41215023      10.29514250       4.39293185      -0.67200000      -0.23000000
P        1.46143025       7.34772056      10.29910940      -0.67400000      -0.24000000
P        4.44213909       7.42156499       7.42136230      -0.68100000      -0.24000000
P        1.46143025      10.29931209       7.34751788      -0.67400000      -0.24000000
P        4.38012746      10.28029481      10.28009212      -0.66200000      -0.24000000
P        7.44065121       1.39892222       4.41234322      -0.67600000      -0.24000000
P       10.32046078       1.43155829       1.43135560      -0.67700000      -0.24000000
P        7.44065121       4.41254590       1.39871953      -0.67600000      -0.24000000
P       10.33655114       4.39617216       4.39596948      -0.67400000      -0.24000000
P        7.37244420       1.43282138      10.27322608      -0.67600000      -0.24000000
P       10.32631385       1.43121984       7.35683999      -0.68000000      -0.24000000
P        7.41610373       4.37367359       7.37277745      -0.67500000      -0.24000000
P       10.28702387       4.40093206      10.29661518      -0.67600000      -0.24000000
P        7.41610373       7.37298014       4.37347091      -0.67500000      -0.24000000
P       10.32631385       7.35704268       1.43101715      -0.68000000      -0.24000000
P        7.37244420      10.27342876       1.43261869      -0.67600000      -0.24000000
P       10.28702387      10.29681786       4.40072937      -0.67600000      -0.24000000
P        7.35686911       7.35131879      10.31029598      -0.67500000      -0.24000000
P       10.30000690       7.36708061       7.36687793      -0.67500000      -0.24000000
P        7.35686911      10.31049867       7.35111611      -0.67500000      -0.24000000
P       10.31815926      10.29683279      10.29663010      -0.67400000      -0.24000000
In       0.00445171      -0.03662618      -0.03682887       0.67600000       0.24000000
In       2.97036001      -0.00659389       2.90549082       0.73400000       0.26000000
In      -0.01167807       2.91165594       2.91145325       0.67600000       0.24000000
In       2.97036001       2.90569351      -0.00679658       0.73400000       0.26000000
In      -0.04089787      -0.06311629       5.87141490       0.65600000       0.23000000
In       2.93367322      -0.02175873       8.81787985       0.68200000       0.25000000
In      -0.05879293       2.90516662       8.87552530       0.65600000       0.23000000
In       2.76063512       2.86823771       5.99063350       0.68200000       0.25000000
In      -0.04089787       5.87161758      -0.06331897       0.65600000       0.23000000
In       2.76063512       5.99083618       2.86803503       0.68200000       0.25000000
In      -0.05879293       8.87572799       2.90496394       0.65600000       0.23000000
In       2.93367322       8.81808254      -0.02196142       0.68200000       0.25000000
In      -0.03696161       5.89122724       5.89102455       0.68000000       0.24000000
In       2.95198534       5.88828315       8.82131068       0.68600000       0.24000000
In      -0.00031824       8.82855618       8.82835349       0.68000000       0.24000000
In       2.95198534       8.82151337       5.88808046       0.68600000       0.24000000
In       5.92234304      -0.11729281      -0.11749550       0.63300000       0.22000000
In       8.86152124      -0.05887293       2.89851157       0.68600000       0.24000000
In       6.12801368       2.71830797       2.71810528       0.63300000       0.22000000
In       8.86152124       2.89871426      -0.05907561       0.68600000       0.24000000
In       5.88362463      -0.02747358       5.85554190       0.68700000       0.24000000
In       8.84916658      -0.03495442       8.81232991       0.67800000       0.24000000
In       5.88620396       2.92382830       8.82170336       0.68700000       0.24000000
In       8.88450413       2.91540225       5.87315048       0.67800000       0.24000000
In       5.88362463       5.85574459      -0.02767627       0.68700000       0.24000000
In       8.88450413       5.87335316       2.91519956       0.67800000       0.24000000
In       5.88620396       8.82190605       2.92362561       0.68700000       0.24000000
In       8.84916658       8.81253260      -0.03515711       0.67800000       0.24000000
In       6.06041096       6.01622037       6.01601768       0.66100000       0.23000000
In       8.84172483       5.88483465       8.84116795       0.67900000       0.24000000
In       5.90042238       8.86355064       8.86334795       0.66100000       0.23000000
In       8.84172483       8.84137064       5.88463196       0.67900000       0.24000000
P        3.98346444       3.56574021       3.56553752      -0.45200000      -0.16000000
65
Lattice="11.801682 -8e-06 -8e-06 -8e-06 11.801682 -8e-06 -8e-06 -8e-06 11.801682" Properties=species:S:1:pos:R:3:mulliken_charges:R:1:hirshfeld_charges:R:1 fermi_energy=3.718544537463 core_to_fermi_energy=15.690571930710242 config_type=Interstitial energy=-63090.31545752038 pbc="T T T"
P        1.43384210       1.40139235       4.39328813      -0.64200000      -0.23000000
P        4.48397978       1.27479397       1.27425981      -0.45200000      -0.16000000
P        1.43384210       4.39382229       1.40085819      -0.64200000      -0.23000000
P        3.95885176       4.97981741       4.97928325      -0.66200000      -0.24000000
P        1.47185114       1.44365949      10.29656553      -0.64200000      -0.23000000
P        4.41117966       1.44542958       7.32159466      -0.67600000      -0.24000000
P        1.34819939       4.41747711       7.44145752      -0.67400000      -0.24000000
P        4.41307302       4.37815431      10.28066475      -0.67200000      -0.23000000
P        1.34819939       7.44199168       4.41694295      -0.67400000      -0.24000000
P        4.41117966       7.32212882       1.44489542      -0.67600000      -0.24000000
P        1.47185114      10.29709969       1.44312533      -0.64200000      -0.23000000
P        4.41307302      10.28119891       4.37762015      -0.67200000      -0.23000000
P        1.45648065       7.33958231      10.29277794      -0.67400000      -0.24000000
P        4.42802329       7.38501543       7.38448127      -0.68100000      -0.24000000
P        1.45648065      10.29331210       7.33904815      -0.67400000      -0.24000000
P        4.38189342      10.24886591      10.24833175      -0.66200000      -0.24000000
P        7.45023381       1.37856960       4.39386998      -0.67600000      -0.24000000
P       10.33108228       1.42244728       1.42191312      -0.67700000      -0.24000000
P        7.45023381       4.39440414       1.37803544      -0.67600000      -0.24000000
P       10.33746921       4.38408426       4.38355010      -0.67400000      -0.24000000
P        7.38239508       1.41671184      10.25416203      -0.67600000      -0.24000000
P       10.32656509       1.41807986       7.34001047      -0.68000000      -0.24000000
P        7.40229062       4.35869432       7.34800861      -0.67500000      -0.24000000
P       10.28671582       4.39316562      10.28225622      -0.67600000      -0.24000000
P        7.40229062       7.34854277       4.35816016      -0.67500000      -0.24000000
P       10.32656509       7.34054463       1.41754570      -0.68000000      -0.24000000
P        7.38239508      10.25469619       1.41617768      -0.67600000      -0.24000000
P       10.28671582      10.28279038       4.39263146      -0.67600000      -0.24000000
P        7.35028292       7.33347428      10.29280963      -0.67500000      -0.24000000
P       10.28998665       7.35765714       7.35712298      -0.67500000      -0.24000000
P        7.35028292      10.29334379       7.33294012      -0.67500000      -0.24000000
P       10.31760848      10.28435919      10.28382503      -0.67400000      -0.24000000
In       0.00652548      -0.04932590      -0.04986006       0.67600000       0.24000000
In       2.98031917      -0.01165089       2.89069697       0.73400000       0.26000000
In       0.00118574       2.90449067       2.90395651       0.67600000       0.24000000
In       2.98031917       2.89123113      -0.01218505       0.73400000       0.26000000
In      -0.03256844      -0.06525323       5.84962668       0.65600000       0.23000000
In       2.93399187      -0.03372596       8.80831871       0.68200000       0.25000000
In      -0.06594231       2.88754935       8.86911099       0.65600000       0.23000000
In       2.75625109       2.87666085       6.01189879       0.68200000       0.25000000
In      -0.03256844       5.85016084      -0.06578739       0.65600000       0.23000000
In       2.75625109       6.01243295       2.87612669       0.68200000       0.25000000
In      -0.06594231       8.86964515       2.88701519       0.65600000       0.23000000
In       2.93399187       8.80885287      -0.03426012       0.68200000       0.25000000
In      -0.04778446       5.88427509       5.88374093       0.68000000       0.24000000
In       2.94372588       5.87782296       8.82061250       0.68600000       0.24000000
In      -0.00328205       8.81615224       8.81561808       0.68000000       0.24000000
In       2.94372588       8.82114666       5.87728880       0.68600000       0.24000000
In       5.93912920      -0.15727607      -0.15781023       0.63300000       0.22000000
In       8.87223380      -0.07560851       2.88192082       0.68600000       0.24000000
In       6.15140248       2.67515732       2.67462316       0.63300000       0.22000000
In       8.87223380       2.88245498      -0.07614267       0.68600000       0.24000000
In       5.88322875      -0.03742091       5.83636540       0.68700000       0.24000000
In       8.85099093      -0.05422669       8.79024903       0.67800000       0.24000000
In       5.88795598       2.90516668       8.80989146       0.68700000       0.24000000
In       8.88282531       2.90170608       5.85745639       0.67800000       0.24000000
In       5.88322875       5.83689956      -0.03795507       0.68700000       0.24000000
In       8.88282531       5.85799055       2.90117192       0.67800000       0.24000000
In       5.88795598       8.81042562       2.90463252       0.68700000       0.24000000
In       8.85099093       8.79078319      -0.05476085       0.67800000       0.24000000
In       6.02284161       5.97187126       5.97133710       0.66100000       0.23000000
In       8.83138223       5.86709020       8.82183319       0.67900000       0.24000000
In       5.89344846       8.82672256       8.82618840       0.66100000       0.23000000
In       8.83138223       8.82236735       5.86655604       0.67900000       0.24000000
P        3.98316283       3.47731905       3.47678489      -0.45200000      -0.16000000
65
Lattice="11.801682 -8e-06 -8e-06 -8e-06 11.801682 -8e-06 -8e-06 -8e-06 11.801682" Properties=species:S:1:pos:R:3:mulliken_charges:R:1:hirshfeld_charges:R:1 fermi_energy=3.718544537463 core_to_fermi_energy=15.690571930710242 config_type=Interstitial energy=-63090.30458371825 pbc="T T T"
P        1.44633589       1.38706596       4.37417331      -0.64200000      -0.23000000
P        4.48829579       1.22216947       1.22111588      -0.45200000      -0.16000000
P        1.44633589       4.37522691       1.38601236      -0.64200000      -0.23000000
P        3.96099062       4.86755915       4.86650556      -0.66200000      -0.24000000
P        1.46498098       1.42095852      10.26967699      -0.64200000      -0.23000000
P        4.41185582       1.42163286       7.30661606      -0.67600000      -0.24000000
P        1.34799412       4.40183912       7.42298741      -0.67400000      -0.24000000
P        4.41027888       4.35612314      10.26201395      -0.67200000      -0.23000000
P        1.34799412       7.42404100       4.40078553      -0.67400000      -0.24000000
P        4.41185582       7.30766965       1.42057927      -0.67600000      -0.24000000
P        1.46498098      10.27073059       1.41990492      -0.64200000      -0.23000000
P        4.41027888      10.26306755       4.35506955      -0.67200000      -0.23000000
P        1.45201062       7.32228766      10.27410352      -0.67400000      -0.24000000
P        4.41527384       7.33660706       7.33555346      -0.68100000      -0.24000000
P        1.45201062      10.27515711       7.32123406      -0.67400000      -0.24000000
P        4.38620402      10.20919768      10.20814408      -0.66200000      -0.24000000
P        7.46860177       1.34943417       4.37257162      -0.67600000      -0.24000000
P       10.34099072       1.40473523       1.40368163      -0.67700000      -0.24000000
P        7.46860177       4.37362521       1.34838057      -0.67600000      -0.24000000
P       10.33958012       4.36759040       4.36653680      -0.67400000      -0.24000000
P        7.38879883       1.39880764      10.23331190      -0.67600000      -0.24000000
P       10.32304680       1.39601286       7.31976426      -0.68000000      -0.24000000
P        7.38624321       4.33844741       7.31701968      -0.67500000      -0.24000000
P       10.29133356       4.38196162      10.25152689      -0.67600000      -0.24000000
P        7.38624321       7.31807327       4.33739382      -0.67500000      -0.24000000
P       10.32304680       7.32081786       1.39495927      -0.68000000      -0.24000000
P        7.38879883      10.23436550       1.39775405      -0.67600000      -0.24000000
P       10.29133356      10.25258048       4.38090803      -0.67600000      -0.24000000
P        7.34129866       7.30851039      10.26874724      -0.67500000      -0.24000000
P       10.28325309       7.33826664       7.33721305      -0.67500000      -0.24000000
P        7.34129866      10.26980084       7.30745679      -0.67500000      -0.24000000
P       10.31021033      10.26252796      10.26147436      -0.67400000      -0.24000000
In       0.00250051      -0.07279178      -0.07384538       0.67600000       0.24000000
In       2.97875974      -0.03499970       2.86044111       0.73400000       0.26000000
In       0.00891948       2.88986010       2.88880650       0.67600000       0.24000000
In       2.97875974       2.86149470      -0.03605329       0.73400000       0.26000000
In      -0.02846100      -0.07724128       5.82638210       0.65600000       0.23000000
In       2.93392588      -0.05769391       8.78973576       0.68200000       0.25000000
In      -0.06854402       2.86893406       8.84187994       0.65600000       0.23000000
In       2.75997837       2.86136780       6.00382844       0.68200000       0.25000000
In      -0.02846100       5.82743570      -0.07829487       0.65600000       0.23000000
In       2.75997837       6.00488204       2.86031420       0.68200000       0.25000000
In      -0.06854402       8.84293353       2.86788047       0.65600000       0.23000000
In       2.93392588       8.79078936      -0.05874750       0.68200000       0.25000000
In      -0.04907847       5.86907449       5.86802090       0.68000000       0.24000000
In       2.93745637       5.85739749       8.80755886       0.68600000       0.24000000
In      -0.00872732       8.79611564       8.79506204       0.68000000       0.24000000
In       2.93745637       8.80861246       5.85634389       0.68600000       0.24000000
In       5.95077731      -0.19994130      -0.20099489       0.63300000       0.22000000
In       8.89125159      -0.10394672       2.86288149       0.68600000       0.24000000
In       6.18996492       2.62375778       2.62270418       0.63300000       0.22000000
In       8.89125159       2.86393508      -0.10500032       0.68600000       0.24000000
In       5.88187088      -0.05192748       5.80931883       0.68700000       0.24000000
In       8.84413831      -0.07795782       8.76596627       0.67800000       0.24000000
In       5.88728864       2.88270632       8.79306280       0.68700000       0.24000000
In       8.88396048       2.88479548       5.84043425       0.67800000       0.24000000
In       5.88187088       5.81037242      -0.05298107       0.68700000       0.24000000
In       8.88396048       5.84148784       2.88374189       0.67800000       0.24000000
In       5.88728864       8.79411640       2.88165272       0.68700000       0.24000000
In       8.84413831       8.76701987      -0.07901141       0.67800000       0.24000000
In       5.98344821       5.91217052       5.91111692       0.66100000       0.23000000
In       8.81912844       5.84603839       8.79340403       0.67900000       0.24000000
In       5.88597296       8.77964132       8.77858773       0.66100000       0.23000000
In       8.81912844       8.79445762       5.84498479       0.67900000       0.24000000
P        3.98854782       3.36579728       3.36474368      -0.45200000      -0.16000000
65
Lattice="11.801682 -8e-06 -8e-06 -8e-06 11.801682 -8e-06 -8e-06 -8e-06 11.801682" Properties=species:S:1:pos:R:3:mulliken_charges:R:1:hirshfeld_charges:R:1 fermi_energy=3.718544537463 core_to_fermi_energy=15.690571930710242 config_type=Interstitial energy=-63090.16666038165 pbc="T T T"
P        1.44362033       1.38661339       4.37312776      -0.64200000      -0.23000000
P        4.43481934       1.21455659       1.21339372      -0.45200000      -0.16000000
P        1.44362033       4.37429062       1.38545053      -0.64200000      -0.23000000
P        4.00034180       4.75480877       4.75364591      -0.66200000      -0.24000000
P        1.43841974       1.40975808      10.24138242      -0.64200000      -0.23000000
P        4.41091507       1.41877904       7.31196906      -0.67600000      -0.24000000
P        1.36899333       4.39483683       7.40459003      -0.67400000      -0.24000000
P        4.40257457       4.35330076      10.26361827      -0.67200000      -0.23000000
P        1.36899333       7.40575289       4.39367396      -0.67400000      -0.24000000
P        4.41091507       7.31313192       1.41761618      -0.67600000      -0.24000000
P        1.43841974      10.24254528       1.40859522      -0.64200000      -0.23000000
P        4.40257457      10.26478113       4.35213790      -0.67200000      -0.23000000
P        1.45154357       7.31970033      10.26769882      -0.67400000      -0.24000000
P        4.41123440       7.31893913       7.31777626      -0.68100000      -0.24000000
P        1.45154357      10.26886168       7.31853747      -0.67400000      -0.24000000
P        4.39449256      10.20897996      10.20781709      -0.66200000      -0.24000000
P        7.50933673       1.33382047       4.39675465      -0.67600000      -0.24000000
P       10.34730974       1.40143836       1.40027550      -0.67700000      -0.24000000
P        7.50933673       4.39791751       1.33265761      -0.67600000      -0.24000000
P       10.34407623       4.37278523       4.37162237      -0.67400000      -0.24000000
P        7.38119234       1.40797113      10.24490100      -0.67600000      -0.24000000
P       10.31500949       1.38801475       7.33034856      -0.68000000      -0.24000000
P        7.37407645       4.34396800       7.31222443      -0.67500000      -0.24000000
P       10.30151621       4.39165758      10.23621012      -0.67600000      -0.24000000
P        7.37407645       7.31338729       4.34280513      -0.67500000      -0.24000000
P       10.31500949       7.33151142       1.38685189      -0.68000000      -0.24000000
P        7.38119234      10.24606386       1.40680827      -0.67600000      -0.24000000
P       10.30151621      10.23737298       4.39049472      -0.67600000      -0.24000000
P        7.33262906       7.30665901      10.26817011      -0.67500000      -0.24000000
P       10.28501321       7.33344361       7.33228075      -0.67500000      -0.24000000
P        7.33262906      10.26933297       7.30549615      -0.67500000      -0.24000000
P       10.29782987      10.25590584      10.25474298      -0.67400000      -0.24000000
In      -0.00728806      -0.08283603      -0.08399889       0.67600000       0.24000000
In       2.93914586      -0.06431605       2.85195322       0.73400000       0.26000000
In       0.00599406       2.89036253       2.88919967       0.67600000       0.24000000
In       2.93914586       2.85311609      -0.06547891       0.73400000       0.26000000
In      -0.02900234      -0.07240168       5.83231008       0.65600000       0.23000000
In       2.93293631      -0.06652641       8.78782559       0.68200000       0.25000000
In      -0.06961738       2.87825900       8.81637327       0.65600000       0.23000000
In       2.78439610       2.85924472       5.98102036       0.68200000       0.25000000
In      -0.02900234       5.83347294      -0.07356454       0.65600000       0.23000000
In       2.78439610       5.98218322       2.85808186       0.68200000       0.25000000
In      -0.06961738       8.81753613       2.87709613       0.65600000       0.23000000
In       2.93293631       8.78898845      -0.06768927       0.68200000       0.25000000
In      -0.03525240       5.86947202       5.86830916       0.68000000       0.24000000
In       2.93647501       5.85364186       8.80380722       0.68600000       0.24000000
In      -0.01260287       8.79297864       8.79181578       0.68000000       0.24000000
In       2.93647501       8.80497008       5.85247900       0.68600000       0.24000000
In       5.93261257      -0.17832768      -0.17949054       0.63300000       0.22000000
In       8.91344354      -0.11635046       2.86570262       0.68600000       0.24000000
In       6.28093616       2.65921354       2.65805068       0.63300000       0.22000000
In       8.91344354       2.86686548      -0.11751332       0.68600000       0.24000000
In       5.87420108      -0.04753862       5.80723040       0.68700000       0.24000000
In       8.82445930      -0.07783840       8.77692076       0.67800000       0.24000000
In       5.88437417       2.88547876       8.79458746       0.68700000       0.24000000
In       8.89836653       2.89477092       5.86064023       0.67800000       0.24000000
In       5.87420108       5.80839326      -0.04870148       0.68700000       0.24000000
In       8.89836653       5.86180309       2.89360806       0.67800000       0.24000000
In       5.88437417       8.79575032       2.88431590       0.68700000       0.24000000
In       8.82445930       8.77808362      -0.07900126       0.67800000       0.24000000
In       5.94865189       5.88052514       5.87936228       0.66100000       0.23000000
In       8.81148595       5.85148325       8.78818425       0.67900000       0.24000000
In       5.88130854       8.77095115       8.76978829       0.66100000       0.23000000
In       8.81148595       8.78934711       5.85032038       0.67900000       0.24000000