63
Lattice="11.8016818 -7.6e-06 -7.6e-06 -7.6e-06 11.8016818 -7.8e-06 -7.6e-06 -7.8e-06 11.8016816" Properties=species:S:1:pos:R:3:mulliken_charges:R:1 virial="-0.001343979365248383 3.847269175329341e-05 3.847269175329341e-05 3.847269175329341e-05 -0.001345261788306826 3.847269175329341e-05 3.847269175329341e-05 3.847269175329341e-05 -0.0013426969421899398" fermi_energy=3.4539138232004998 core_to_fermi_energy=15.43004959127955 config_type=Accurate_Bulk energy=-62662.62601250099 pbc="T T T"
P        1.51370296       1.51370290       4.42957744      -0.67500000
P        4.42957757       1.51370304       1.51370301      -0.67500000
P        1.51370298       4.42957753       1.51370289      -0.67500000
In       0.00029145       0.00029144       0.00029144       0.67500000
In       2.95155646       0.00775513       2.95155637       0.67500000
In       0.00775518       2.95155639       2.95155634       0.67500000
In       2.95155646       2.95155642       0.00775515       0.67500000
P        1.47924594       1.47924578      10.32647986      -0.67500000
P        4.42167736       1.51369516       7.33755362      -0.67500000
P        1.51369533       4.42167722       7.33755351      -0.67500000
P        4.42562059       4.42562043      10.32646438      -0.67500000
In       0.01643133       0.01643121       5.90085417       0.67500000
In       2.95040239       0.01642602       8.83482724       0.67500000
In       0.01642621       2.95040222       8.83482717       0.67500000
In       3.07460184       3.07460161       5.77665910       0.67500000
P        1.51369530       7.33755366       4.42167716      -0.67500000
P        4.42167736       7.33755373       1.51369513      -0.67500000
P        1.47924594      10.32648004       1.47924574      -0.67500000
P        4.42562059      10.32646455       4.42562035      -0.67500000
In       0.01643134       5.90085427       0.01643122       0.67500000
In       3.07460184       5.77665924       3.07460161       0.67500000
In       0.01642620       8.83482733       2.95040217       0.67500000
In       2.95040239       8.83482739       0.01642602       0.67500000
P        1.47924152       7.37199966      10.32645500      -0.67500000
P        4.42957040       7.33754442       7.33754430      -0.67500000
P        1.47924151      10.32645518       7.37199955      -0.67500000
P        4.42561768      10.32646102      10.32646085      -0.67500000
In       0.00774968       5.89970082       5.89970072       0.67500000
In       2.95154868       5.89969856       8.84349845       0.67500000
In       0.00027941       8.85096561       8.85096545       0.67500000
In       2.95154868       8.84349862       5.89969846       0.67500000
P        7.33755370       1.51369526       4.42167725      -0.67500000
P       10.32648004       1.47924593       1.47924590      -0.67500000
P        7.33755368       4.42167731       1.51369525      -0.67500000
P       10.32646460       4.42562053       4.42562045      -0.67500000
In       5.90085427       0.01643136       0.01643136       0.67500000
In       8.83482738       0.01642615       2.95040233       0.67500000
In       5.77665910       3.07460197       3.07460197       0.67500000
In       8.83482737       2.95040238       0.01642616       0.67500000
P        7.37199982       1.47924135      10.32645512      -0.67500000
P       10.32645530       1.47924139       7.37199971      -0.67500000
P        7.33754458       4.42957026       7.33754440      -0.67500000
P       10.32646118       4.42561749      10.32646095      -0.67500000
In       5.89970096       0.00774955       5.89970082       0.67500000
In       8.85096578       0.00027924       8.85096561       0.67500000
In       5.89969873       2.95154851       8.84349852       0.67500000
In       8.84349875       2.95154854       5.89969856       0.67500000
P        7.33754461       7.33754454       4.42957017      -0.67500000
P       10.32645530       7.37199982       1.47924135      -0.67500000
P        7.37199983      10.32645530       1.47924131      -0.67500000
P       10.32646118      10.32646112       4.42561742      -0.67500000
In       5.89970096       5.89970092       0.00774957       0.67500000
In       8.84349875       5.89969867       2.95154849       0.67500000
In       5.89969874       8.84349869       2.95154846       0.67500000
In       8.85096578       8.85096576       0.00027924       0.67500000
P        7.37199559       7.37199543      10.32647049      -0.67500000
P       10.32647078       7.37199548       7.37199536      -0.67500000
P        7.37199560      10.32647066       7.37199532      -0.67500000
P       10.32645764      10.32645748      10.32645731      -0.67500000
In       5.77663187       5.77663165       5.77663151       0.67500000
In       8.83481656       5.90084210       8.83481628       0.67500000
In       5.90084226       8.83481637       8.83481622       0.67500000
In       8.83481657       8.83481645       5.90084200       0.67500000
63
Lattice="11.8016818 -7.6e-06 -7.6e-06 -7.6e-06 11.8016818 -7.8e-06 -7.6e-06 -7.8e-06 11.8016816" Properties=species:S:1:pos:R:3:mulliken_charges:R:1 virial="-0.001343979365248383 3.847269175329341e-05 3.847269175329341e-05 3.847269175329341e-05 -0.001345261788306826 3.847269175329341e-05 3.847269175329341e-05 3.847269175329341e-05 -0.0013426969421899398" fermi_energy=3.4539138232004998 core_to_fermi_energy=15.43004959127955 config_type=Accurate_Bulk energy=-62662.63087796808 pbc="T T T"
P        1.61928782       1.61928775       4.43978691      -0.67500000
P        4.47885659       1.53477416       1.48353633      -0.67500000
P        1.53477369       4.47885625       1.48353577      -0.67500000
In       0.02340930       0.02340927       0.02124959       0.67500000
In       3.01191042       0.05999556       2.96365878       0.67500000
In       0.05999547       3.01191025       2.96365882       0.67500000
In       2.98229569       2.98229543      -0.00124319       0.67500000
P        1.49762096       1.49762073      10.34118841      -0.67500000
P        4.48113164       1.49534693       7.41538236      -0.67500000
P        1.49534709       4.48113147       7.41538230      -0.67500000
P        4.45063337       4.45063318      10.31913071      -0.67500000
In       0.08830343       0.08830323       5.85141418       0.67500000
In       2.96379689       0.01153107       8.86298595       0.67500000
In       0.01153130       2.96379667       8.86298593       0.67500000
In       3.09295316       3.09295295       5.99316425       0.67500000
P        1.49732193       7.39574949       4.45143172      -0.67500000
P        4.47230387       7.40848762       1.48853938      -0.67500000
P        1.51244681      10.37437952       1.51246797      -0.67500000
P        4.44940834      10.34390418       4.42973955      -0.67500000
In       0.01547692       5.93981865      -0.01425402       0.67500000
In       2.99857733       5.97142504       2.97501034       0.67500000
In       0.01930203       8.88127062       2.95654778       0.67500000
In       2.96362752       8.88825968       0.02348108       0.67500000
P        1.49306702       7.42994100      10.33011154      -0.67500000
P        4.47584004       7.30241123       7.28302785      -0.67500000
P        1.49756968      10.36744340       7.35399185      -0.67500000
P        4.45793112      10.31995241      10.31340512      -0.67500000
In       0.00971937       5.91684839       5.91272546       0.67500000
In       2.98890061       5.97155293       8.85966172       0.67500000
In       0.01519594       8.89467158       8.83396548       0.67500000
In       2.99050832       8.85981451       5.92711877       0.67500000
P        7.39574946       1.49732201       4.45143175      -0.67500000
P       10.37437948       1.51244672       1.51246811      -0.67500000
P        7.40848753       4.47230372       1.48853962      -0.67500000
P       10.34390417       4.44940827       4.42973965      -0.67500000
In       5.93981858       0.01547712      -0.01425364       0.67500000
In       8.88127052       0.01930205       2.95654797       0.67500000
In       5.97142420       2.99857883       2.97501205       0.67500000
In       8.88825955       2.96362747       0.02348131       0.67500000
P        7.42994116       1.49306678      10.33011171      -0.67500000
P       10.36744364       1.49756944       7.35399207      -0.67500000
P        7.30241170       4.47583973       7.28302816      -0.67500000
P       10.31995249       4.45793084      10.31340521      -0.67500000
In       5.91684867       0.00971929       5.91272553       0.67500000
In       8.89467175       0.01519573       8.83396567       0.67500000
In       5.97155315       2.98890037       8.85966183       0.67500000
In       8.85981472       2.99050797       5.92711891       0.67500000
P        7.29058863       7.29058848       4.47794391      -0.67500000
P       10.34724667       7.40208287       1.48220301      -0.67500000
P        7.40208282      10.34724661       1.48220301      -0.67500000
P       10.35143509      10.35143510       4.45145219      -0.67500000
In       5.91629490       5.91629470       0.00000065       0.67500000
In       8.86085484       5.95696558       2.98344902       0.67500000
In       5.95696566       8.86085476       2.98344913       0.67500000
In       8.86902032       8.86902035      -0.00446316       0.67500000
P        7.38888325       7.38888308      10.32169641      -0.67500000
P       10.33431263       7.39658216       7.37868966      -0.67500000
P        7.39658229      10.33431247       7.37868962      -0.67500000
P       10.35263584      10.35263564      10.33538907      -0.67500000
In       5.54651327       5.54651236       5.58035471       0.67500000
In       8.80827029       5.90962345       8.79499793       0.67500000
In       5.90962361       8.80827003       8.79499780       0.67500000
In       8.82268337       8.82268323       5.89020931       0.67500000
63
Lattice="11.8016818 -7.6e-06 -7.6e-06 -7.6e-06 11.8016818 -7.8e-06 -7.6e-06 -7.8e-06 11.8016816" Properties=species:S:1:pos:R:3:mulliken_charges:R:1 virial="-0.001343979365248383 3.847269175329341e-05 3.847269175329341e-05 3.847269175329341e-05 -0.001345261788306826 3.847269175329341e-05 3.847269175329341e-05 3.847269175329341e-05 -0.0013426969421899398" fermi_energy=3.4539138232004998 core_to_fermi_energy=15.43004959127955 config_type=Accurate_Bulk energy=-62662.46966033117 pbc="T T T"
P        1.73551323       1.73551323       4.36586689      -0.67500000
P        4.50265894       1.52637706       1.43124149      -0.67500000
P        1.52637669       4.50265868       1.43124101      -0.67500000
In       0.01553124       0.01553121       0.03842212       0.67500000
In       3.05942673       0.07012755       2.93594681       0.67500000
In       0.07012746       3.05942662       2.93594677       0.67500000
In       2.97034377       2.97034357      -0.01787049       0.67500000
P        1.48013460       1.48013438      10.33977960      -0.67500000
P        4.49946309       1.46773492       7.46741607      -0.67500000
P        1.46773504       4.49946297       7.46741604      -0.67500000
P        4.45201333       4.45201314      10.32687707      -0.67500000
In       0.16780649       0.16780629       5.75960625       0.67500000
In       2.94654599      -0.02210763       8.87747363       0.67500000
In      -0.02210741       2.94654578       8.87747360       0.67500000
In       3.04982159       3.04982146       6.13649752       0.67500000
P        1.50008340       7.37100685       4.44366098      -0.67500000
P        4.46159984       7.39411119       1.51126716      -0.67500000
P        1.50931482      10.38039283       1.53913846      -0.67500000
P        4.44446851      10.34286203       4.43472335      -0.67500000
In      -0.00211043       5.95856423      -0.05496651       0.67500000
In       3.01570576       5.91244420       2.99228118       0.67500000
In       0.01288663       8.86882327       2.96658326       0.67500000
In       2.95539888       8.88189711       0.05725975       0.67500000
P        1.49135912       7.45953257      10.32009140      -0.67500000
P        4.47515058       7.29689042       7.27154000      -0.67500000
P        1.48683838      10.38991320       7.31398960      -0.67500000
P        4.44770039      10.29142450      10.31884695      -0.67500000
In       0.00543439       5.91548545       5.91450372       0.67500000
In       3.00038335       5.98871620       8.87839841       0.67500000
In       0.01169794       8.91729258       8.81380035       0.67500000
In       2.97831736       8.84972734       5.92149221       0.67500000
P        7.37100688       1.50008343       4.44366103      -0.67500000
P       10.38039279       1.50931474       1.53913858      -0.67500000
P        7.39411117       4.46159975       1.51126731      -0.67500000
P       10.34286204       4.44446847       4.43472344      -0.67500000
In       5.95856416      -0.00211028      -0.05496618       0.67500000
In       8.86882324       0.01288661       2.96658344       0.67500000
In       5.91244371       3.01570684       2.99228240       0.67500000
In       8.88189702       2.95539883       0.05725990       0.67500000
P        7.45953270       1.49135890      10.32009154      -0.67500000
P       10.38991343       1.48683815       7.31398980      -0.67500000
P        7.29689084       4.47515031       7.27154024      -0.67500000
P       10.29142461       4.44770014      10.31884703      -0.67500000
In       5.91548566       0.00543432       5.91450379       0.67500000
In       8.91729274       0.01169774       8.81380052       0.67500000
In       5.98871640       3.00038313       8.87839848       0.67500000
In       8.84972757       2.97831705       5.92149233       0.67500000
P        7.30803433       7.30803422       4.48021395      -0.67500000
P       10.34519709       7.39670076       1.47820111      -0.67500000
P        7.39670071      10.34519706       1.47820110      -0.67500000
P       10.37362190      10.37362187       4.45653845      -0.67500000
In       5.91354023       5.91354010       0.02024324       0.67500000
In       8.85958804       5.95292011       2.98594079       0.67500000
In       5.95292015       8.85958798       2.98594087       0.67500000
In       8.86283168       8.86283171      -0.00086039       0.67500000
P        7.38073628       7.38073612      10.32842809      -0.67500000
P       10.33168903       7.39264987       7.38594144      -0.67500000
P        7.39264997      10.33168889       7.38594139      -0.67500000
P       10.34990521      10.34990503      10.34035935      -0.67500000
In       5.55646763       5.55646688       5.55009447       0.67500000
In       8.79391892       5.90498170       8.79451211       0.67500000
In       5.90498185       8.79391868       8.79451200       0.67500000
In       8.83791063       8.83791051       5.89826055       0.67500000
63
Lattice="11.8016818 -7.6e-06 -7.6e-06 -7.6e-06 11.8016818 -7.8e-06 -7.6e-06 -7.8e-06 11.8016816" Properties=species:S:1:pos:R:3:mulliken_charges:R:1 virial="-0.001343979365248383 3.847269175329341e-05 3.847269175329341e-05 3.847269175329341e-05 -0.001345261788306826 3.847269175329341e-05 3.847269175329341e-05 3.847269175329341e-05 -0.0013426969421899398" fermi_energy=3.4539138232004998 core_to_fermi_energy=15.43004959127955 config_type=Accurate_Bulk energy=-62661.97103707668 pbc="T T T"
P        1.95288049       1.95288056       4.23449760      -0.67500000
P        4.51378903       1.50280261       1.38646766      -0.67500000
P        1.50280228       4.51378881       1.38646718      -0.67500000
In       0.01079443       0.01079439       0.04749775       0.67500000
In       3.08219185       0.08157847       2.92840331       0.67500000
In       0.08157836       3.08219181       2.92840321       0.67500000
In       2.96355131       2.96355111      -0.02377032       0.67500000
P        1.47001351       1.47001329      10.33934126      -0.67500000
P        4.50544957       1.45033438       7.50098531      -0.67500000
P        1.45033448       4.50544947       7.50098530      -0.67500000
P        4.45141914       4.45141896      10.33237352      -0.67500000
In       0.21418448       0.21418426       5.70077419       0.67500000
In       2.93281496      -0.04270002       8.88666985       0.67500000
In      -0.04269981       2.93281475       8.88666981       0.67500000
In       3.02668106       3.02668096       6.23346678       0.67500000
P        1.49968742       7.35688865       4.44231794      -0.67500000
P        4.45023314       7.38001817       1.52819241      -0.67500000
P        1.50481371      10.38809045       1.56159457      -0.67500000
P        4.43437060      10.34556202       4.44018510      -0.67500000
In      -0.01706210       5.96615529      -0.08226893       0.67500000
In       3.00144966       5.87141970       2.98848398       0.67500000
In       0.00527443       8.85816649       2.97250382       0.67500000
In       2.95102148       8.87865410       0.07959988       0.67500000
P        1.49090118       7.47285641      10.31791324      -0.67500000
P        4.47551165       7.29446148       7.26899558      -0.67500000
P        1.47774437      10.39822566       7.29558449      -0.67500000
P        4.43863239      10.27281777      10.32065237      -0.67500000
In       0.00479820       5.90905569       5.91684658       0.67500000
In       3.00676603       5.99632038       8.88877256       0.67500000
In       0.00641786       8.92134492       8.81000607       0.67500000
In       2.97129137       8.84302034       5.92281541       0.67500000
P        7.35688870       1.49968743       4.44231801      -0.67500000
P       10.38809041       1.50481364       1.56159468      -0.67500000
P        7.38001818       4.45023308       1.52819251      -0.67500000
P       10.34556202       4.43437058       4.44018520      -0.67500000
In       5.96615521      -0.01706195      -0.08226861       0.67500000
In       8.85816649       0.00527439       2.97250399       0.67500000
In       5.87141934       3.00145062       2.98848505       0.67500000
In       8.87865403       2.95102143       0.07960000       0.67500000
P        7.47285654       1.49090095      10.31791336      -0.67500000
P       10.39822591       1.47774413       7.29558466      -0.67500000
P        7.29446189       4.47551137       7.26899580      -0.67500000
P       10.27281789       4.43863215      10.32065245      -0.67500000
In       5.90905587       0.00479812       5.91684664       0.67500000
In       8.92134508       0.00641767       8.81000622       0.67500000
In       5.99632057       3.00676581       8.88877262       0.67500000
In       8.84302059       2.97129107       5.92281553       0.67500000
P        7.31530086       7.31530076       4.48006781      -0.67500000
P       10.34234619       7.38916898       1.47560006      -0.67500000
P        7.38916893      10.34234617       1.47560006      -0.67500000
P       10.37580854      10.37580849       4.45862590      -0.67500000
In       5.91141183       5.91141172       0.03131017       0.67500000
In       8.85906861       5.94443990       2.98823196       0.67500000
In       5.94443993       8.85906855       2.98823202       0.67500000
In       8.85807299       8.85807303       0.00556002       0.67500000
P        7.37667716       7.37667701      10.33380524      -0.67500000
P       10.33021858       7.38562974       7.39091342      -0.67500000
P        7.38562983      10.33021846       7.39091336      -0.67500000
P       10.34614749      10.34614732      10.34566284      -0.67500000
In       5.56573050       5.56572978       5.53844986       0.67500000
In       8.78631565       5.90086119       8.79776824       0.67500000
In       5.90086135       8.78631542       8.79776813       0.67500000
In       8.83751015       8.83751003       5.90889211       0.67500000
63
Lattice="11.8016818 -7.6e-06 -7.6e-06 -7.6e-06 11.8016818 -7.8e-06 -7.6e-06 -7.8e-06 11.8016816" Properties=species:S:1:pos:R:3:mulliken_charges:R:1 virial="-0.001343979365248383 3.847269175329341e-05 3.847269175329341e-05 3.847269175329341e-05 -0.001345261788306826 3.847269175329341e-05 3.847269175329341e-05 3.847269175329341e-05 -0.0013426969421899398" fermi_energy=3.4539138232004998 core_to_fermi_energy=15.43004959127955 config_type=Accurate_Bulk energy=-62661.274903525045 pbc="T T T"
P        2.18633863       2.18633875       4.08916982      -0.67500000
P        4.51436144       1.48347676       1.36490547      -0.67500000
P        1.48347645       4.51436124       1.36490497      -0.67500000
In       0.00836930       0.00836926       0.05015205       0.67500000
In       3.07373206       0.10099836       2.94407363       0.67500000
In       0.10099824       3.07373208       2.94407350       0.67500000
In       2.96096304       2.96096285      -0.02570110       0.67500000
P        1.46562374       1.46562352      10.33788040      -0.67500000
P        4.50352980       1.44396266       7.51443725      -0.67500000
P        1.44396276       4.50352972       7.51443724      -0.67500000
P        4.45089260       4.45089242      10.33410103      -0.67500000
In       0.19525443       0.19525416       5.70028184       0.67500000
In       2.92624778      -0.05188684       8.89068472       0.67500000
In      -0.05188663       2.92624757       8.89068467       0.67500000
In       2.99426306       2.99426297       6.27032194       0.67500000
P        1.49882754       7.35156114       4.44351286      -0.67500000
P        4.44461925       7.37086013       1.53781245      -0.67500000
P        1.50276752      10.39343283       1.57318151      -0.67500000
P        4.42568924      10.35064568       4.44192249      -0.67500000
In      -0.02292542       5.96496913      -0.09189718       0.67500000
In       2.98572500       5.84949768       2.98445502       0.67500000
In       0.00091504       8.85277596       2.97462606       0.67500000
In       2.95047564       8.87625047       0.08855916       0.67500000
P        1.49046632       7.47460340      10.31903756      -0.67500000
P        4.47585525       7.29433308       7.26901644      -0.67500000
P        1.47346271      10.39229098       7.29691934      -0.67500000
P        4.43458813      10.26421614      10.32075348      -0.67500000
In       0.00522336       5.90339205       5.91877789       0.67500000
In       3.00893759       5.99755764       8.89099766       0.67500000
In       0.00398949       8.91767838       8.81345590       0.67500000
In       2.96872796       8.84105605       5.92439694       0.67500000
P        7.35156121       1.49882754       4.44351293      -0.67500000
P       10.39343279       1.50276746       1.57318162      -0.67500000
P        7.37086016       4.44461920       1.53781252      -0.67500000
P       10.35064567       4.42568923       4.44192258      -0.67500000
In       5.96496904      -0.02292527      -0.09189686       0.67500000
In       8.85277597       0.00091500       2.97462625       0.67500000
In       5.84949740       2.98572591       2.98445601       0.67500000
In       8.87625041       2.95047558       0.08855927       0.67500000
P        7.47460353       1.49046609      10.31903768      -0.67500000
P       10.39229127       1.47346246       7.29691949      -0.67500000
P        7.29433350       4.47585497       7.26901666      -0.67500000
P       10.26421627       4.43458790      10.32075355      -0.67500000
In       5.90339222       0.00522328       5.91877796       0.67500000
In       8.91767855       0.00398930       8.81345604       0.67500000
In       5.99755783       3.00893737       8.89099771       0.67500000
In       8.84105631       2.96872765       5.92439705       0.67500000
P        7.31864467       7.31864458       4.47991269      -0.67500000
P       10.34098889       7.38533685       1.47365461      -0.67500000
P        7.38533680      10.34098887       1.47365461      -0.67500000
P       10.36166009      10.36166003       4.45781080      -0.67500000
In       5.91053669       5.91053660       0.03433076       0.67500000
In       8.86028830       5.94002290       2.98921145       0.67500000
In       5.94002293       8.86028825       2.98921150       0.67500000
In       8.85633882       8.85633886       0.00902098       0.67500000
P        7.37545560       7.37545545      10.33617835      -0.67500000
P       10.32971087       7.38178154       7.39319513      -0.67500000
P        7.38178164      10.32971075       7.39319508      -0.67500000
P       10.34371380      10.34371364      10.34767308      -0.67500000
In       5.57523798       5.57523726       5.53386949       0.67500000
In       8.78442756       5.89909626       8.80000482       0.67500000
In       5.89909641       8.78442733       8.80000471       0.67500000
In       8.83356850       8.83356838       5.91463328       0.67500000
63
Lattice="11.8016818 -7.6e-06 -7.6e-06 -7.6e-06 11.8016818 -7.8e-06 -7.6e-06 -7.8e-06 11.8016816" Properties=species:S:1:pos:R:3:mulliken_charges:R:1 virial="-0.001343979365248383 3.847269175329341e-05 3.847269175329341e-05 3.847269175329341e-05 -0.001345261788306826 3.847269175329341e-05 3.847269175329341e-05 3.847269175329341e-05 -0.0013426969421899398" fermi_energy=3.4539138232004998 core_to_fermi_energy=15.43004959127955 config_type=Accurate_Bulk energy=-62660.75380427779 pbc="T T T"
P        2.43386983       2.43387003       3.95635411      -0.67500000
P        4.51110015       1.46345005       1.34458352      -0.67500000
P        1.46344977       4.51109999       1.34458301      -0.67500000
In       0.00559947       0.00559944       0.05115379       0.67500000
In       3.05228780       0.13503763       2.96814217       0.67500000
In       0.13503749       3.05228790       2.96814197       0.67500000
In       2.95830856       2.95830837      -0.03162897       0.67500000
P        1.46095374       1.46095353      10.33539330      -0.67500000
P        4.49752635       1.43982429       7.52489469      -0.67500000
P        1.43982438       4.49752627       7.52489470      -0.67500000
P        4.45087130       4.45087111      10.33385469      -0.67500000
In       0.18039234       0.18039201       5.69193605       0.67500000
In       2.91950311      -0.06189344       8.89258543       0.67500000
In      -0.06189323       2.91950289       8.89258539       0.67500000
In       2.95974192       2.95974185       6.28304587       0.67500000
P        1.49784394       7.34605333       4.44524424      -0.67500000
P        4.43968651       7.35989413       1.54898456      -0.67500000
P        1.50070231      10.39753198       1.58285691      -0.67500000
P        4.41582474      10.35794557       4.44211534      -0.67500000
In      -0.02909162       5.96138883      -0.09959542       0.67500000
In       2.96263059       5.82668410       2.97948756       0.67500000
In      -0.00427698       8.84943506       2.97770797       0.67500000
In       2.94989771       8.87264079       0.09646699       0.67500000
P        1.48912476       7.47465267      10.32088217      -0.67500000
P        4.47523087       7.29627440       7.27087744      -0.67500000
P        1.46474184      10.38449524       7.29988231      -0.67500000
P        4.43053091      10.25537218      10.32091859      -0.67500000
In       0.00587988       5.89686074       5.92216727       0.67500000
In       3.00822901       5.99676441       8.89132616       0.67500000
In       0.00237434       8.91418353       8.81677998       0.67500000
In       2.96549736       8.84174851       5.92687213       0.67500000
P        7.34605340       1.49784392       4.44524433      -0.67500000
P       10.39753195       1.50070226       1.58285703      -0.67500000
P        7.35989419       4.43968647       1.54898461      -0.67500000
P       10.35794556       4.41582474       4.44211543      -0.67500000
In       5.96138872      -0.02909147      -0.09959510       0.67500000
In       8.84943508      -0.00427702       2.97770816       0.67500000
In       5.82668391       2.96263141       2.97948845       0.67500000
In       8.87264075       2.94989764       0.09646709       0.67500000
P        7.47465279       1.48912453      10.32088229      -0.67500000
P       10.38449555       1.46474159       7.29988243      -0.67500000
P        7.29627482       4.47523059       7.27087765      -0.67500000
P       10.25537231       4.43053067      10.32091866      -0.67500000
In       5.89686090       0.00587979       5.92216734       0.67500000
In       8.91418371       0.00237417       8.81678011       0.67500000
In       5.99676460       3.00822879       8.89132621       0.67500000
In       8.84174877       2.96549706       5.92687224       0.67500000
P        7.32417334       7.32417327       4.47937709      -0.67500000
P       10.33934236       7.38170884       1.47207600      -0.67500000
P        7.38170879      10.33934235       1.47207600      -0.67500000
P       10.34732066      10.34732060       4.46086550      -0.67500000
In       5.90899713       5.90899705       0.03588326       0.67500000
In       8.86260900       5.93550330       2.99085892       0.67500000
In       5.93550332       8.86260894       2.99085896       0.67500000
In       8.85485368       8.85485372       0.01224807       0.67500000
P        7.37432226       7.37432211      10.33893036      -0.67500000
P       10.32928363       7.37879535       7.39530237      -0.67500000
P        7.37879544      10.32928351       7.39530231      -0.67500000
P       10.34072840      10.34072825      10.34895283      -0.67500000
In       5.59058712       5.59058642       5.53617845       0.67500000
In       8.78388587       5.89774076       8.80267665       0.67500000
In       5.89774091       8.78388565       8.80267655       0.67500000
In       8.83222451       8.83222439       5.92029263       0.67500000
63