63
Lattice="11.8016818 -7.6e-06 -7.6e-06 -7.6e-06 11.8016818 -7.8e-06 -7.6e-06 -7.8e-06 11.8016816" Properties=species:S:1:pos:R:3:mulliken_charges:R:1 virial="-0.001343979365248383 3.847269175329341e-05 3.847269175329341e-05 3.847269175329341e-05 -0.001345261788306826 3.847269175329341e-05 3.847269175329341e-05 3.847269175329341e-05 -0.0013426969421899398" fermi_energy=3.4539138232004998 core_to_fermi_energy=15.43004959127955 config_type=Accurate_Bulk energy=-62662.62601250099 pbc="T T T"
P        1.51370296       1.51370290       4.42957744      -0.67500000
P        4.42957757       1.51370304       1.51370301      -0.67500000
P        1.51370298       4.42957753       1.51370289      -0.67500000
In       0.00029145       0.00029144       0.00029144       0.67500000
In       2.95155646       0.00775513       2.95155637       0.67500000
In       0.00775518       2.95155639       2.95155634       0.67500000
In       2.95155646       2.95155642       0.00775515       0.67500000
P        1.47924594       1.47924578      10.32647986      -0.67500000
P        4.42167736       1.51369516       7.33755362      -0.67500000
P        1.51369533       4.42167722       7.33755351      -0.67500000
P        4.42562059       4.42562043      10.32646438      -0.67500000
In       0.01643133       0.01643121       5.90085417       0.67500000
In       2.95040239       0.01642602       8.83482724       0.67500000
In       0.01642621       2.95040222       8.83482717       0.67500000
In       3.07460184       3.07460161       5.77665910       0.67500000
P        1.51369530       7.33755366       4.42167716      -0.67500000
P        4.42167736       7.33755373       1.51369513      -0.67500000
P        1.47924594      10.32648004       1.47924574      -0.67500000
P        4.42562059      10.32646455       4.42562035      -0.67500000
In       0.01643134       5.90085427       0.01643122       0.67500000
In       3.07460184       5.77665924       3.07460161       0.67500000
In       0.01642620       8.83482733       2.95040217       0.67500000
In       2.95040239       8.83482739       0.01642602       0.67500000
P        1.47924152       7.37199966      10.32645500      -0.67500000
P        4.42957040       7.33754442       7.33754430      -0.67500000
P        1.47924151      10.32645518       7.37199955      -0.67500000
P        4.42561768      10.32646102      10.32646085      -0.67500000
In       0.00774968       5.89970082       5.89970072       0.67500000
In       2.95154868       5.89969856       8.84349845       0.67500000
In       0.00027941       8.85096561       8.85096545       0.67500000
In       2.95154868       8.84349862       5.89969846       0.67500000
P        7.33755370       1.51369526       4.42167725      -0.67500000
P       10.32648004       1.47924593       1.47924590      -0.67500000
P        7.33755368       4.42167731       1.51369525      -0.67500000
P       10.32646460       4.42562053       4.42562045      -0.67500000
In       5.90085427       0.01643136       0.01643136       0.67500000
In       8.83482738       0.01642615       2.95040233       0.67500000
In       5.77665910       3.07460197       3.07460197       0.67500000
In       8.83482737       2.95040238       0.01642616       0.67500000
P        7.37199982       1.47924135      10.32645512      -0.67500000
P       10.32645530       1.47924139       7.37199971      -0.67500000
P        7.33754458       4.42957026       7.33754440      -0.67500000
P       10.32646118       4.42561749      10.32646095      -0.67500000
In       5.89970096       0.00774955       5.89970082       0.67500000
In       8.85096578       0.00027924       8.85096561       0.67500000
In       5.89969873       2.95154851       8.84349852       0.67500000
In       8.84349875       2.95154854       5.89969856       0.67500000
P        7.33754461       7.33754454       4.42957017      -0.67500000
P       10.32645530       7.37199982       1.47924135      -0.67500000
P        7.37199983      10.32645530       1.47924131      -0.67500000
P       10.32646118      10.32646112       4.42561742      -0.67500000
In       5.89970096       5.89970092       0.00774957       0.67500000
In       8.84349875       5.89969867       2.95154849       0.67500000
In       5.89969874       8.84349869       2.95154846       0.67500000
In       8.85096578       8.85096576       0.00027924       0.67500000
P        7.37199559       7.37199543      10.32647049      -0.67500000
P       10.32647078       7.37199548       7.37199536      -0.67500000
P        7.37199560      10.32647066       7.37199532      -0.67500000
P       10.32645764      10.32645748      10.32645731      -0.67500000
In       5.77663187       5.77663165       5.77663151       0.67500000
In       8.83481656       5.90084210       8.83481628       0.67500000
In       5.90084226       8.83481637       8.83481622       0.67500000
In       8.83481657       8.83481645       5.90084200       0.67500000
63
Lattice="11.8016818 -7.6e-06 -7.6e-06 -7.6e-06 11.8016818 -7.8e-06 -7.6e-06 -7.8e-06 11.8016816" Properties=species:S:1:pos:R:3:mulliken_charges:R:1 virial="-0.001343979365248383 3.847269175329341e-05 3.847269175329341e-05 3.847269175329341e-05 -0.001345261788306826 3.847269175329341e-05 3.847269175329341e-05 3.847269175329341e-05 -0.0013426969421899398" fermi_energy=3.4539138232004998 core_to_fermi_energy=15.43004959127955 config_type=Accurate_Bulk energy=-62662.653315932985 pbc="T T T"
P        1.47898496       1.56190451       4.46201872      -0.67500000
P        4.46201923       1.56190468       1.47898573      -0.67500000
P        1.59852947       4.51740476       1.59852934      -0.67500000
In       0.03256108       0.04514635       0.03256099       0.67500000
In       3.00489538       0.12640867       3.00489484       0.67500000
In       0.02489138       3.04305058       2.96055229       0.67500000
In       2.96055228       3.04305074       0.02489121       0.67500000
P        1.49993756       1.53632642      10.35850988      -0.67500000
P        4.45171134       1.51499885       7.40650131      -0.67500000
P        1.46938455       4.53021010       7.42806441      -0.67500000
P        4.44076572       4.49004791      10.33128568      -0.67500000
In      -0.00630550       0.02974363       5.92193645       0.67500000
In       2.95386501       0.03011435       8.88995432       0.67500000
In       0.00236098       2.98970848       8.88155824       0.67500000
In       2.87923880       2.96209968       6.05015874       0.67500000
P        1.53848634       7.39969727       4.43253089      -0.67500000
P        4.43253108       7.39969745       1.53848616      -0.67500000
P        1.53202277      10.42440670       1.53202268      -0.67500000
P        4.43677901      10.38376016       4.43677871      -0.67500000
In       0.06009419       5.92725316       0.06009406       0.67500000
In       3.23521775       5.83087867       3.23521757       0.67500000
In       0.06653264       8.89129334       2.95816729       0.67500000
In       2.95816762       8.89129343       0.06653235       0.67500000
P        1.48844771       7.43329891      10.36720865      -0.67500000
P        4.45697791       7.38024466       7.30848566      -0.67500000
P        1.47726673      10.37327997       7.40166257      -0.67500000
P        4.44019066      10.33383847      10.33811625      -0.67500000
In       0.01349440       5.97808212       5.89449274       0.67500000
In       2.98995774       6.00826193       8.86828791       0.67500000
In       0.00065947       8.88613648       8.87599246       0.67500000
In       2.95599330       8.90270930       5.92426276       0.67500000
P        7.40650138       1.51499882       4.45171157      -0.67500000
P       10.35851010       1.53632653       1.49993760      -0.67500000
P        7.42806474       4.53021047       1.46938457      -0.67500000
P       10.33128602       4.49004796       4.44076569      -0.67500000
In       5.92193647       0.02974389      -0.00630530       0.67500000
In       8.88995442       0.03011450       2.95386493       0.67500000
In       6.05015820       2.96209994       2.87923878       0.67500000
In       8.88155829       2.98970859       0.00236081       0.67500000
P        7.38366737       1.53367415      10.33092347      -0.67500000
P       10.33092389       1.53367406       7.38366700      -0.67500000
P        7.26369489       4.51194583       7.26369477      -0.67500000
P       10.33499973       4.49241381      10.33499954      -0.67500000
In       5.90984211       0.03785601       5.90984174       0.67500000
In       8.86754987       0.04814128       8.86754994       0.67500000
In       5.92722586       3.02898445       8.84833768       0.67500000
In       8.84833781       3.02898443       5.92722557       0.67500000
P        7.30848608       7.38024489       4.45697772      -0.67500000
P       10.36720900       7.43329909       1.48844752      -0.67500000
P        7.40166288      10.37327999       1.47726652      -0.67500000
P       10.33811667      10.33383885       4.44019050      -0.67500000
In       5.89449304       5.97808219       0.01349426       0.67500000
In       8.86828810       6.00826201       2.98995733       0.67500000
In       5.92426303       8.90270943       2.95599303       0.67500000
In       8.87599270       8.88613667       0.00065925       0.67500000
P        7.39062686       7.41503216      10.32376271      -0.67500000
P       10.32376301       7.41503215       7.39062648      -0.67500000
P        7.38953058      10.37459994       7.38953010      -0.67500000
P       10.34893592      10.38361169      10.34893562      -0.67500000
In       5.57442194       5.74274218       5.57442156       0.67500000
In       8.80212779       5.92049142       8.80212759       0.67500000
In       5.91067982       8.85491480       8.81912890       0.67500000
In       8.81912904       8.85491483       5.91067968       0.67500000
63
Lattice="11.8016818 -7.6e-06 -7.6e-06 -7.6e-06 11.8016818 -7.8e-06 -7.6e-06 -7.8e-06 11.8016816" Properties=species:S:1:pos:R:3:mulliken_charges:R:1 virial="-0.001343979365248383 3.847269175329341e-05 3.847269175329341e-05 3.847269175329341e-05 -0.001345261788306826 3.847269175329341e-05 3.847269175329341e-05 3.847269175329341e-05 -0.0013426969421899398" fermi_energy=3.4539138232004998 core_to_fermi_energy=15.43004959127955 config_type=Accurate_Bulk energy=-62662.41847741153 pbc="T T T"
P        1.42637502       1.63716004       4.53393874      -0.67500000
P        4.53394776       1.63716843       1.42635501      -0.67500000
P        1.58600361       4.49621902       1.58600372      -0.67500000
In       0.06709533       0.00137101       0.06709555       0.67500000
In       3.09008722       0.39533310       3.09011103       0.67500000
In      -0.01483335       3.05649657       2.95334346       0.67500000
In       2.95334494       3.05649566      -0.01483154       0.67500000
P        1.49445199       1.51145742      10.36049214      -0.67500000
P        4.44646432       1.49803553       7.41542020      -0.67500000
P        1.45002527       4.56357338       7.47213739      -0.67500000
P        4.44213113       4.50788337      10.31067841      -0.67500000
In      -0.01873642      -0.02357341       5.92090933       0.67500000
In       2.94931005       0.00803103       8.89364826       0.67500000
In      -0.00072044       2.96194081       8.88036802       0.67500000
In       2.86975243       2.99631851       6.12347052       0.67500000
P        1.53790978       7.40429386       4.42229133      -0.67500000
P        4.42229186       7.40429275       1.53790859      -0.67500000
P        1.62708200      10.53458072       1.62707852      -0.67500000
P        4.41219530      10.45901120       4.41219555      -0.67500000
In       0.04613365       5.90419470       0.04613396       0.67500000
In       3.21017803       5.83463232       3.21017749       0.67500000
In       0.11966624       8.92542568       2.92172060       0.67500000
In       2.92171914       8.92542640       0.11966886       0.67500000
P        1.48285402       7.44644436      10.39694577      -0.67500000
P        4.45744654       7.38717348       7.27247128      -0.67500000
P        1.47783393      10.34626096       7.40275323      -0.67500000
P        4.42225878      10.29584219      10.33644022      -0.67500000
In       0.01343689       5.98171725       5.89005541       0.67500000
In       2.99381746       6.05512228       8.87320684       0.67500000
In      -0.00743990       8.86729085       8.88167820       0.67500000
In       2.96582526       8.92765181       5.88628769       0.67500000
P        7.41542216       1.49803493       4.44646312      -0.67500000
P       10.36049029       1.51146011       1.49445000      -0.67500000
P        7.47213392       4.56356758       1.45002157      -0.67500000
P       10.31067497       4.50788597       4.44212818      -0.67500000
In       5.92090932      -0.02357258      -0.01873580       0.67500000
In       8.89364843       0.00803158       2.94931091       0.67500000
In       6.12347299       2.99632268       2.86975362       0.67500000
In       8.88037048       2.96194128      -0.00071584       0.67500000
P        7.37380986       1.50863144      10.33509991      -0.67500000
P       10.33509693       1.50863137       7.37381508      -0.67500000
P        7.26000433       4.48694222       7.26000388      -0.67500000
P       10.32490086       4.46382631      10.32489943      -0.67500000
In       5.91820599       0.02661887       5.91820740       0.67500000
In       8.87480372       0.03961197       8.87479836       0.67500000
In       5.92463271       3.01161500       8.85287167       0.67500000
In       8.85287342       3.01161526       5.92463339       0.67500000
P        7.27247079       7.38717245       4.45744522      -0.67500000
P       10.39694683       7.44644557       1.48285361      -0.67500000
P        7.40275300      10.34626220       1.47783317      -0.67500000
P       10.33643939      10.29583918       4.42225836      -0.67500000
In       5.89005504       5.98171825       0.01343771       0.67500000
In       8.87321094       6.05512304       2.99382292       0.67500000
In       5.88628835       8.92765120       2.96582587       0.67500000
In       8.88168022       8.86729111      -0.00743898       0.67500000
P        7.39076769       7.40355005      10.31405024      -0.67500000
P       10.31405089       7.40355017       7.39076988      -0.67500000
P        7.39565393      10.36686751       7.39565709      -0.67500000
P       10.35972585      10.37748160      10.35972524      -0.67500000
In       5.55680740       5.70007784       5.55680654       0.67500000
In       8.79485675       5.89769129       8.79485471       0.67500000
In       5.90804826       8.83724797       8.80679346       0.67500000
In       8.80679691       8.83724838       5.90804558       0.67500000
63
Lattice="11.8016818 -7.6e-06 -7.6e-06 -7.6e-06 11.8016818 -7.8e-06 -7.6e-06 -7.8e-06 11.8016816" Properties=species:S:1:pos:R:3:mulliken_charges:R:1 virial="-0.001343979365248383 3.847269175329341e-05 3.847269175329341e-05 3.847269175329341e-05 -0.001345261788306826 3.847269175329341e-05 3.847269175329341e-05 3.847269175329341e-05 -0.0013426969421899398" fermi_energy=3.4539138232004998 core_to_fermi_energy=15.43004959127955 config_type=Accurate_Bulk energy=-62661.816785200004 pbc="T T T"
P        1.36310461       1.67449882       4.58555076      -0.67500000
P        4.58550829       1.67447807       1.36317876      -0.67500000
P        1.58212740       4.47889173       1.58212834      -0.67500000
In       0.08988961      -0.04870642       0.08989003       0.67500000
In       3.22772590       0.72358124       3.22762431       0.67500000
In      -0.04272737       3.05948873       2.94073651       0.67500000
In       2.94073674       3.05948760      -0.04272984       0.67500000
P        1.48401275       1.49098332      10.36256407      -0.67500000
P        4.44335484       1.48171006       7.41786217      -0.67500000
P        1.43939059       4.57025316       7.48944782      -0.67500000
P        4.44436647       4.51054133      10.30065839      -0.67500000
In      -0.03582468      -0.07871266       5.92598406       0.67500000
In       2.94491400      -0.00482558       8.89812859       0.67500000
In      -0.00394947       2.94277639       8.88035163       0.67500000
In       2.86125714       3.00276313       6.15831120       0.67500000
P        1.53655277       7.40409580       4.41558133      -0.67500000
P        4.41558098       7.40409785       1.53655569      -0.67500000
P        1.68565284      10.59196149       1.68566038      -0.67500000
P        4.36874636      10.53014454       4.36874693      -0.67500000
In       0.03738837       5.89074287       0.03738693       0.67500000
In       3.20423026       5.83498955       3.20422980       0.67500000
In       0.15097828       8.93560449       2.88110158       0.67500000
In       2.88110451       8.93560201       0.15097238       0.67500000
P        1.47931490       7.43897823      10.40138322      -0.67500000
P        4.45538534       7.39336282       7.25950103      -0.67500000
P        1.48426372      10.32492055       7.40313487      -0.67500000
P        4.40341212      10.26350344      10.33471848      -0.67500000
In       0.01494016       5.98083841       5.88776777       0.67500000
In       2.99454758       6.06342775       8.87189982       0.67500000
In      -0.01063749       8.85567953       8.88464433       0.67500000
In       2.97681680       8.94509163       5.85508588       0.67500000
P        7.41785723       1.48171639       4.44335124      -0.67500000
P       10.36256933       1.49097722       1.48401728      -0.67500000
P        7.48945510       4.57026495       1.43939943      -0.67500000
P       10.30066740       4.51053515       4.44437156      -0.67500000
In       5.92598541      -0.07871745      -0.03582899       0.67500000
In       8.89812745      -0.00482674       2.94491098       0.67500000
In       6.15830799       3.00275264       2.86125728       0.67500000
In       8.88034722       2.94277662      -0.00395951       0.67500000
P        7.36588937       1.48999846      10.33781542      -0.67500000
P       10.33782201       1.48999999       7.36587900      -0.67500000
P        7.26106100       4.47326645       7.26105976      -0.67500000
P       10.31772496       4.44627578      10.31772715      -0.67500000
In       5.91004511       0.00344809       5.91004524       0.67500000
In       8.87244709       0.03350728       8.87245683       0.67500000
In       5.92350690       2.99786299       8.85376627       0.67500000
In       8.85376334       2.99786304       5.92350712       0.67500000
P        7.25950281       7.39336398       4.45538686      -0.67500000
P       10.40138227       7.43897602       1.47931601      -0.67500000
P        7.40313712      10.32491941       1.48426558      -0.67500000
P       10.33472122      10.26350693       4.40341041      -0.67500000
In       5.88776904       5.98083727       0.01493776       0.67500000
In       8.87189267       6.06342735       2.99453552       0.67500000
In       5.85508561       8.94509249       2.97681332       0.67500000
In       8.88464007       8.85567928      -0.01063992       0.67500000
P        7.38922223       7.39693353      10.31072693      -0.67500000
P       10.31072670       7.39693347       7.38921714      -0.67500000
P        7.39212091      10.36234334       7.39211495      -0.67500000
P       10.35712341      10.37117326      10.35712259      -0.67500000
In       5.55824246       5.69827675       5.55824260       0.67500000
In       8.79311252       5.89006533       8.79311633       0.67500000
In       5.90789828       8.82987827       8.80279132       0.67500000
In       8.80278608       8.82987813       5.90790276       0.67500000
63
Lattice="11.8016818 -7.6e-06 -7.6e-06 -7.6e-06 11.8016818 -7.8e-06 -7.6e-06 -7.8e-06 11.8016816" Properties=species:S:1:pos:R:3:mulliken_charges:R:1 virial="-0.001343979365248383 3.847269175329341e-05 3.847269175329341e-05 3.847269175329341e-05 -0.001345261788306826 3.847269175329341e-05 3.847269175329341e-05 3.847269175329341e-05 -0.0013426969421899398" fermi_energy=3.4539138232004998 core_to_fermi_energy=15.43004959127955 config_type=Accurate_Bulk energy=-62661.01489047657 pbc="T T T"
P        1.31413171       1.67473600       4.60782516      -0.67500000
P        4.60786625       1.67474356       1.31404848      -0.67500000
P        1.57968973       4.46470073       1.57968847      -0.67500000
In       0.09712723      -0.07643977       0.09712738       0.67500000
In       3.36684125       1.05747049       3.36695247       0.67500000
In      -0.05528662       3.05478280       2.93894473       0.67500000
In       2.93894320       3.05478575      -0.05528594       0.67500000
P        1.47893959       1.48115696      10.36315024      -0.67500000
P        4.44220553       1.47130008       7.42236960      -0.67500000
P        1.43603599       4.56722653       7.49268360      -0.67500000
P        4.44686711       4.50888605      10.29777162      -0.67500000
In      -0.04618748      -0.11104475       5.92905016       0.67500000
In       2.94144846      -0.01300406       8.90029920       0.67500000
In      -0.00604547       2.93301231       8.88171995       0.67500000
In       2.85605663       2.99599203       6.16779241       0.67500000
P        1.53507004       7.40095562       4.41562870      -0.67500000
P        4.41562935       7.40095480       1.53506836      -0.67500000
P        1.69786257      10.59161302       1.69785817      -0.67500000
P        4.32670099      10.58578653       4.32669737      -0.67500000
In       0.03178875       5.88639915       0.03178914       0.67500000
In       3.19941214       5.83658049       3.19941257       0.67500000
In       0.16035706       8.93216019       2.85667081       0.67500000
In       2.85666925       8.93216167       0.16035886       0.67500000
P        1.47710255       7.42923623      10.39593544      -0.67500000
P        4.45593458       7.39234450       7.26062290      -0.67500000
P        1.49055875      10.31189558       7.40021562      -0.67500000
P        4.39403001      10.24543536      10.33272670      -0.67500000
In       0.01460730       5.97955741       5.88780145       0.67500000
In       2.99434311       6.06003819       8.87273422       0.67500000
In      -0.01024803       8.85322830       8.88448075       0.67500000
In       2.99355827       8.95321231       5.83668364       0.67500000
P        7.42237101       1.47129611       4.44220786      -0.67500000
P       10.36314741       1.48116038       1.47893647      -0.67500000
P        7.49267756       4.56721899       1.43603284      -0.67500000
P       10.29776608       4.50889137       4.44686411      -0.67500000
In       5.92904872      -0.11103688      -0.04618340       0.67500000
In       8.90030104      -0.01300336       2.94145036       0.67500000
In       6.16780234       2.99600604       2.85606097       0.67500000
In       8.88172264       2.93301124      -0.00604181       0.67500000
P        7.36316623       1.48045408      10.34016052      -0.67500000
P       10.34015594       1.48045197       7.36317197      -0.67500000
P        7.26389410       4.46571541       7.26389507      -0.67500000
P       10.31339227       4.43871582      10.31339150      -0.67500000
In       5.89517395      -0.01362721       5.89517240       0.67500000
In       8.86947378       0.02972775       8.86946852       0.67500000
In       5.92384065       2.98992854       8.85583892       0.67500000
In       8.85584107       2.98992884       5.92383958       0.67500000
P        7.26062243       7.39234457       4.45593327      -0.67500000
P       10.39593585       7.42923745       1.47710086      -0.67500000
P        7.40021444      10.31189578       1.49055791      -0.67500000
P       10.33272543      10.24543526       4.39403219      -0.67500000
In       5.88780152       5.97955837       0.01460814       0.67500000
In       8.87273905       6.06003778       2.99435029       0.67500000
In       5.83668354       8.95321279       2.99356120       0.67500000
In       8.88448355       8.85322832      -0.01024798       0.67500000
P        7.38907679       7.39463109      10.31014046      -0.67500000
P       10.31014051       7.39463082       7.38907802      -0.67500000
P        7.38609472      10.36349471       7.38609565      -0.67500000
P       10.35142809      10.36756941      10.35142855      -0.67500000
In       5.56277128       5.70328763       5.56277073       0.67500000
In       8.79313568       5.88940232       8.79313359       0.67500000
In       5.91033103       8.82878543       8.80146864       0.67500000
In       8.80147125       8.82878604       5.91032891       0.67500000
63
Lattice="11.8016818 -7.6e-06 -7.6e-06 -7.6e-06 11.8016818 -7.8e-06 -7.6e-06 -7.8e-06 11.8016816" Properties=species:S:1:pos:R:3:mulliken_charges:R:1 virial="-0.001343979365248383 3.847269175329341e-05 3.847269175329341e-05 3.847269175329341e-05 -0.001345261788306826 3.847269175329341e-05 3.847269175329341e-05 3.847269175329341e-05 -0.0013426969421899398" fermi_energy=3.4539138232004998 core_to_fermi_energy=15.43004959127955 config_type=Accurate_Bulk energy=-62660.24187178973 pbc="T T T"
P        1.27676429       1.65666092       4.61812985      -0.67500000
P        4.61812525       1.65666361       1.27677695      -0.67500000
P        1.57376171       4.45107753       1.57376188      -0.67500000
In       0.09778681      -0.08731235       0.09778667       0.67500000
In       3.46147766       1.42472539       3.46146114       0.67500000
In      -0.06117428       3.04412062       2.94498806       0.67500000
In       2.94498861       3.04412007      -0.06117432       0.67500000
P        1.47697600       1.47478568      10.36246272      -0.67500000
P        4.44215662       1.46338903       7.42820462      -0.67500000
P        1.43330373       4.56403342       7.49526827      -0.67500000
P        4.44927388       4.50492632      10.29720768      -0.67500000
In      -0.05156146      -0.13038480       5.92702398       0.67500000
In       2.93940016      -0.02036212       8.89959937       0.67500000
In      -0.00854030       2.92628676       8.88317150       0.67500000
In       2.84908540       2.98452998       6.17248119       0.67500000
P        1.53343338       7.39448472       4.41749006      -0.67500000
P        4.41749021       7.39448485       1.53343335      -0.67500000
P        1.69757716      10.58010235       1.69757735      -0.67500000
P        4.30105043      10.60885139       4.30105072      -0.67500000
In       0.02589046       5.88399647       0.02589028       0.67500000
In       3.19078206       5.83289191       3.19078182       0.67500000
In       0.16293725       8.92587224       2.84612922       0.67500000
In       2.84612960       8.92587221       0.16293698       0.67500000
P        1.47445452       7.42367197      10.39166266      -0.67500000
P        4.45657496       7.38689290       7.26890337      -0.67500000
P        1.49529135      10.30118496       7.39531006      -0.67500000
P        4.38842772      10.23294388      10.33054573      -0.67500000
In       0.01219771       5.97666329       5.88789445       0.67500000
In       2.99480648       6.05426655       8.87617475       0.67500000
In      -0.00836271       8.85417029       8.88228445       0.67500000
In       3.01326203       8.95199962       5.82558388       0.67500000
P        7.42820484       1.46338939       4.44215671      -0.67500000
P       10.36246319       1.47478563       1.47697641      -0.67500000
P        7.49526963       4.56403490       1.43330331      -0.67500000
P       10.29720849       4.50492567       4.44927387      -0.67500000
In       5.92702452      -0.13038621      -0.05156214       0.67500000
In       8.89959911      -0.02036202       2.93939990       0.67500000
In       6.17247818       2.98452735       2.84908472       0.67500000
In       8.88317131       2.92628705      -0.00854053       0.67500000
P        7.36290992       1.47305881      10.34242047      -0.67500000
P       10.34242130       1.47305902       7.36290913      -0.67500000
P        7.26817248       4.45872867       7.26817216      -0.67500000
P       10.30931167       4.43405155      10.30931145      -0.67500000
In       5.87831186      -0.02530564       5.87831187       0.67500000
In       8.86671928       0.02710171       8.86671965       0.67500000
In       5.92510464       2.98243389       8.85845953       0.67500000
In       8.85845947       2.98243386       5.92510455       0.67500000
P        7.26890389       7.38689300       4.45657482      -0.67500000
P       10.39166306       7.42367213       1.47445455      -0.67500000
P        7.39531050      10.30118514       1.49529112      -0.67500000
P       10.33054621      10.23294395       4.38842713      -0.67500000
In       5.88789455       5.97666325       0.01219750       0.67500000
In       8.87617474       6.05426681       2.99480562       0.67500000
In       5.82558430       8.95199954       3.01326144       0.67500000
In       8.88228449       8.85417059      -0.00836277       0.67500000
P        7.38941654       7.39366293      10.31039235      -0.67500000
P       10.31039271       7.39366301       7.38941625      -0.67500000
P        7.38092705      10.36589765       7.38092678      -0.67500000
P       10.34816819      10.36392577      10.34816777      -0.67500000
In       5.57210628       5.71300856       5.57210583       0.67500000
In       8.79373170       5.89055875       8.79373156       0.67500000
In       5.91346310       8.83002556       8.80050727       0.67500000
In       8.80050735       8.83002545       5.91346305       0.67500000
63