 +-------------------------------------------------+
 |                                                 |
 |      CCC   AA    SSS  TTTTT  EEEEE  PPPP        |
 |     C     A  A  S       T    E      P   P       |
 |     C     AAAA   SS     T    EEE    PPPP        |
 |     C     A  A     S    T    E      P           |
 |      CCC  A  A  SSS     T    EEEEE  P           |
 |                                                 |
 +-------------------------------------------------+
 |                                                 |
 | Welcome to Academic Release CASTEP version 24.1 |
 | Ab Initio Total Energy Program                  |
 |                                                 |
 | Authors:                                        |
 | M. Segall, M. Probert, C. Pickard, P. Hasnip,   |
 | S. Clark, K. Refson, J. R. Yates,               |
 | A. Bartok-Partay, M. Payne                      |
 |                                                 |
 | Contributors:                                   |
 | P. Lindan, P. Haynes, J. White, V. Milman,      |
 | N. Govind, M. Gibson, P. Tulip, V. Cocula,      |
 | B. Montanari, D. Quigley, M. Glover,            |
 | L. Bernasconi, A. Perlov, M. Plummer,           |
 | E. McNellis, J. Meyer, J. Gale, D. Jochym       |
 | J. Aarons, B. Walker, R. Gillen, D. Jones       |
 | T. Green, I. J. Bush, C. J. Armstrong,          |
 | E. J. Higgins, E. L. Brown, M. S. McFly,        |
 | J. Wilkins, B-C. Shih, P. J. P. Byrne,          |
 | R. J. Maurer, J. C. Womack, J. Dziedzic,        |
 | L. LeBlanc, T. K. Stenczel, J. Kermode,         |
 | S. Sturniolo, B. Shi, B. Durham, M. Evans,      |
 | M. J. Smith, A. Tamerus, Z. Hawkhead,           |
 | V. Ravindran, T. Hollins, S. A. Joyce,          |
 | R. T. Strong, A. M. Reilly, S. J. Donaldson     |
 |                                                 |
 | Copyright (c) 2000 - 2023                       |
 |                                                 |
 |     Distributed under license from Cambridge    |
 |     Enterprise for academic use only.           |
 |                                                 |
 | Please cite                                     |
 |                                                 |
 |     "First principles methods using CASTEP"     |
 |                                                 |
 |         Zeitschrift fuer Kristallographie       |
 |           220(5-6) pp. 567-570 (2005)           |
 |                                                 |
 | S. J. Clark, M. D. Segall, C. J. Pickard,       |
 | P. J. Hasnip, M. J. Probert, K. Refson,         |
 | M. C. Payne                                     |
 |                                                 |
 |       in all publications arising from          |
 |              your use of CASTEP                 |
 |                                                 |
 +-------------------------------------------------+
 |                                                 |
 |              http://www.castep.org              |
 |                                                 |
 +-------------------------------------------------+



 Compiled for  GNU 11.2.0 on 04-04-2024 18:39:17
 from code version 6355fd106 Castep241_branch Thu Mar 7 17:56:19 2024 +0000
 Compiler: GNU Fortran 11.2.0; Optimisation: FAST
 Comms   : MPI VERSION : CRAY MPICH version 8.1.23.14 (ANL base 3.4a2)
 MATHLIBS: default (LAPACK version 3.10.1)
 FFT Lib : fftw3 version commercial-fftw-3.3.10-sse2-avx-avx2-avx2_128
 Fundamental constants values: CODATA 2018

 Run started: Sun, 27 Apr 2025 05:25:24 +0100

 Atomic calculation performed for P: 1s2 2s2 2p6 3s2 3p3

 Converged in 47 iterations to an ae energy of -9309.074 eV

   ============================================================                
   | Pseudopotential Report - Date of generation 27-04-2025   |                
   ------------------------------------------------------------                
   | Element: P Ionic charge:  5.00 Level of theory: RSCAN    |                
   | Atomic Solver: Koelling-Harmon                           |                
   |                                                          |                
   |               Reference Electronic Structure             |                
   |         Orbital         Occupation         Energy        |                
   |            3s              2.000           -0.535        |                
   |            3p              3.000           -0.209        |                
   |                                                          |                
   |                 Pseudopotential Definition               |                
   |        Beta     l      e      Rc     scheme   norm       |                
   |          1      0   -0.535   1.807     qc      0         |                
   |          2      0    0.250   1.807     qc      0         |                
   |          3      1   -0.209   1.807     qc      0         |                
   |          4      1    0.250   1.807     qc      0         |                
   |          5      2    0.000   1.807     qc      0         |                
   |          6      2    0.250   1.807     qc      0         |                
   |         loc     3    0.000   1.807     pn      0         |                
   |                                                          |                
   | Augmentation charge Rinner = 1.263                       |                
   | Partial core correction Rc = 1.263                       |                
   ------------------------------------------------------------                
   | "3|1.8|4|4|5|30:31:32"                                   |                
   ------------------------------------------------------------                
   |      Author: Chris J. Pickard, Cambridge University      |                
   ============================================================                
 Warning: otfg_output_psp cannot write out meta-GGA pseudopotentials presently.

 Atomic calculation performed for In:
 1s2 2s2 2p6 3s2 3p6 3d10 4s2 4p6 4d10 5s2 5p1

 Converged in 84 iterations to an ae energy of -160093.328 eV

   ============================================================                
   | Pseudopotential Report - Date of generation 27-04-2025   |                
   ------------------------------------------------------------                
   | Element: In Ionic charge: 13.00 Level of theory: RSCAN   |                
   | Atomic Solver: Koelling-Harmon                           |                
   |                                                          |                
   |               Reference Electronic Structure             |                
   |         Orbital         Occupation         Energy        |                
   |            4d             10.000           -0.711        |                
   |            5s              2.000           -0.313        |                
   |            5p              1.000           -0.095        |                
   |                                                          |                
   |                 Pseudopotential Definition               |                
   |        Beta     l      e      Rc     scheme   norm       |                
   |          1      0   -0.313   2.501     qc      0         |                
   |          2      0    0.250   2.501     qc      0         |                
   |          3      1   -0.095   2.501     qc      0         |                
   |          4      1    0.250   2.501     qc      0         |                
   |          5      2   -0.711   2.207     qc      0         |                
   |          6      2    0.250   2.207     qc      0         |                
   |         loc     3    0.000   2.501     pn      0         |                
   |                                                          |                
   | Augmentation charge Rinner = 1.504                       |                
   | Partial core correction Rc = 1.504                       |                
   ------------------------------------------------------------                
   | "3|2.5|2.5|1.5|7|8|9|50:51:42U2.2U2.2"                   |                
   ------------------------------------------------------------                
   |      Author: Chris J. Pickard, Cambridge University      |                
   ============================================================                
 Warning: otfg_output_psp cannot write out meta-GGA pseudopotentials presently.

 Pseudo atomic calculation performed for P 3s2 3p3

 Converged in 23 iterations to a total energy of -208.0292 eV

 Pseudo atomic calculation performed for In 4d10 5s2 5p1

 Converged in 42 iterations to a total energy of -1747.4501 eV
 Calculation parallelised over 108 processes.
 Data is distributed by G-vector(3-way) and k-point(36-way)
 Each process may use up to 16 threads.

 ************************************ Title ************************************
 

 ***************************** General Parameters ******************************
  
 output verbosity                               : normal  (1)
 write checkpoint data to                       : In_Vacancy_Migration_15->60_Singlepoints_3.check
 type of calculation                            : single point energy
 stress calculation                             : off
 density difference calculation                 : off
 electron localisation func (ELF) calculation   : off
 Hirshfeld analysis                             : on
 polarisation (Berry phase) analysis            : off
 molecular orbital projected DOS                : off
 deltaSCF calculation                           : off
 unlimited duration calculation
 timing information                             : on
 memory usage estimate                          : on
 write extra output files                       : on
 write final potential to formatted file        : off
 write final density to formatted file          : off
 write BibTeX reference list                    : on
 write OTFG pseudopotential files               : on
 write electrostatic potential file             : on
 write bands file                               : on
 checkpoint writing                             : off
  
 output         length unit                     : A
 output           mass unit                     : amu
 output           time unit                     : ps
 output         charge unit                     : e
 output           spin unit                     : hbar/2
 output         energy unit                     : eV
 output          force unit                     : eV/A
 output       velocity unit                     : A/ps
 output       pressure unit                     : GPa
 output     inv_length unit                     : 1/A
 output      frequency unit                     : cm-1
 output force constant unit                     : eV/A**2
 output         volume unit                     : A**3
 output   IR intensity unit                     : (D/A)**2/amu
 output         dipole unit                     : D
 output         efield unit                     : eV/A/e
 output        entropy unit                     : J/mol/K
 output    efield chi2 unit                     : pm/V
  
 wavefunctions paging                           : none
 random number generator seed                   :   52524244
 data distribution                              : optimal for this architecture
 optimization strategy                          : balance speed and memory

 *********************** Exchange-Correlation Parameters ***********************
  
 using functional                               : RSCAN
 relativistic treatment                         : Koelling-Harmon
 DFT+D: Semi-empirical dispersion correction    : off

 ************************* Pseudopotential Parameters **************************
  
 pseudopotential representation                 : reciprocal space
 <beta|phi> representation                      : reciprocal space
 spin-orbit coupling                            : off

 **************************** Basis Set Parameters *****************************
  
 plane wave basis set cut-off                   :   900.0000   eV
 size of standard grid                          :     2.0000
 size of   fine   gmax                          :    30.7390   1/A
 finite basis set correction                    : none

 **************************** Electronic Parameters ****************************
  
 number of  electrons                           :  563.0    
 net charge of system                           :  0.000    
 net spin   of system                           :  1.000    
 number of  up  spins                           :  282.0    
 number of down spins                           :  281.0    
 treating system as spin-polarized
 number of bands                                :        338

 ********************* Electronic Minimization Parameters **********************
  
 Method: Treating system as metallic with density mixing treatment of electrons,
         and number of  SD  steps               :          1
         and number of  CG  steps               :          4
  
 total energy / atom convergence tol.           : 0.1000E-07   eV
 eigen-energy convergence tolerance             : 0.2234E-08   eV
 max force / atom convergence tol.              : ignored
 convergence tolerance window                   :          3   cycles
 max. number of SCF cycles                      :        100
 number of fixed-spin iterations                :         10
 smearing scheme                                : Gaussian
 smearing width                                 : 0.2000       eV
 Fermi energy convergence tolerance             : 0.2721E-13   eV
 periodic dipole correction                     : NONE

 ************************** Density Mixing Parameters **************************
  
 density-mixing scheme                          : Pulay
 max. length of mixing history                  :         20
 charge density mixing amplitude                : 0.5000    
   spin density mixing amplitude                :  2.000    
 cut-off energy for mixing                      :  900.0       eV

 *********************** Population Analysis Parameters ************************
  
 Population analysis with cutoff                :  3.000       A
 Population analysis output                     : summary and pdos components

 *******************************************************************************
  

                           -------------------------------
                                      Unit Cell
                           -------------------------------
        Real Lattice(A)                      Reciprocal Lattice(1/A)
    11.8016820    -0.0000080    -0.0000080        0.532397442   0.000000361   0.000000361
    -0.0000080    11.8016820    -0.0000080        0.000000361   0.532397442   0.000000361
    -0.0000080    -0.0000080    11.8016820        0.000000361   0.000000361   0.532397442

                       Lattice parameters(A)       Cell Angles
                    a =     11.801682          alpha =   90.000078
                    b =     11.801682          beta  =   90.000078
                    c =     11.801682          gamma =   90.000078

                       Current cell volume =          1643.734705       A**3
                                   density =             2.768402   AMU/A**3
                                           =             4.597040     g/cm^3

                           -------------------------------
                                     Cell Contents
                           -------------------------------
                         Total number of ions in cell =   63
                      Total number of species in cell =    2
                        Max number of any one species =   32

            xxxxxxxxxxxxxxxxxxxxxxxxxxxxxxxxxxxxxxxxxxxxxxxxxxxxxxxxxxxx
            x  Element    Atom        Fractional coordinates of atoms  x
            x            Number           u          v          w      x
            x----------------------------------------------------------x
            x  P            1         0.132401   0.132401   0.391775   x 
            x  P            2         0.374690   0.127274   0.135001   x 
            x  P            3         0.127274   0.374690   0.135001   x 
            x  P            4         0.438866   0.438866   0.353565   x 
            x  P            5         0.128699   0.128699   0.875103   x 
            x  P            6         0.380193   0.144746   0.616570   x 
            x  P            7         0.144746   0.380193   0.616570   x 
            x  P            8         0.373785   0.373785   0.875291   x 
            x  P            9         0.127356   0.628703   0.373445   x 
            x  P           10         0.374030   0.632379   0.112076   x 
            x  P           11         0.125596   0.878174   0.125135   x 
            x  P           12         0.373092   0.874293   0.377987   x 
            x  P           13         0.114589   0.630734   0.884461   x 
            x  P           14         0.372738   0.608752   0.622304   x 
            x  P           15         0.122774   0.876950   0.625399   x 
            x  P           16         0.375888   0.883283   0.864390   x 
            x  P           17         0.628703   0.127356   0.373445   x 
            x  P           18         0.878174   0.125596   0.125135   x 
            x  P           19         0.632379   0.374030   0.112076   x 
            x  P           20         0.874293   0.373092   0.377987   x 
            x  P           21         0.630734   0.114589   0.884461   x 
            x  P           22         0.876950   0.122774   0.625399   x 
            x  P           23         0.608752   0.372738   0.622304   x 
            x  P           24         0.883283   0.375888   0.864390   x 
            x  P           25         0.579768   0.579768   0.379419   x 
            x  P           26         0.868050   0.621938   0.131340   x 
            x  P           27         0.621938   0.868050   0.131340   x 
            x  P           28         0.867705   0.867705   0.374066   x 
            x  P           29         0.625044   0.625044   0.868927   x 
            x  P           30         0.873468   0.620730   0.620091   x 
            x  P           31         0.620730   0.873468   0.620091   x 
            x  P           32         0.873283   0.873283   0.877023   x 
            x  In           1         0.001266   0.001266  -0.002711   x 
            x  In           2         0.243028   0.003499   0.260552   x 
            x  In           3         0.003499   0.243028   0.260552   x 
            x  In           4         0.252173   0.252173   0.006045   x 
            x  In           5        -0.002331  -0.002331   0.493066   x 
            x  In           6         0.250804   0.013262   0.738186   x 
            x  In           7         0.013262   0.250804   0.738186   x 
            x  In           8         0.355938   0.355938   0.534001   x 
            x  In           9        -0.004231   0.495785   0.008568   x 
            x  In          10         0.256459   0.511431   0.245566   x 
            x  In          11        -0.000739   0.750219   0.247695   x 
            x  In          12         0.250722   0.761030  -0.008407   x 
            x  In          13         0.006263   0.498082   0.496744   x 
            x  In          14         0.241135   0.509355   0.762100   x 
            x  In          15        -0.005296   0.750066   0.747775   x 
            x  In          16         0.252536   0.747115   0.507885   x 
            x  In          17         0.495785  -0.004231   0.008568   x 
            x  In          18         0.750219  -0.000739   0.247695   x 
            x  In          19         0.511431   0.256459   0.245566   x 
            x  In          20         0.761030   0.250722  -0.008407   x 
            x  In          21         0.498082   0.006263   0.496744   x 
            x  In          22         0.750066  -0.005296   0.747775   x 
            x  In          23         0.509355   0.241135   0.762100   x 
            x  In          24         0.747115   0.252536   0.507885   x 
            x  In          25         0.500587   0.500587  -0.005280   x 
            x  In          26         0.741322   0.494196   0.255273   x 
            x  In          27         0.494196   0.741322   0.255273   x 
            x  In          28         0.746745   0.746745   0.000671   x 
            x  In          29         0.744134   0.494631   0.740976   x 
            x  In          30         0.494631   0.744134   0.740976   x 
            x  In          31         0.735674   0.735674   0.496812   x 
            xxxxxxxxxxxxxxxxxxxxxxxxxxxxxxxxxxxxxxxxxxxxxxxxxxxxxxxxxxxx


                         No user defined ionic velocities

                           -------------------------------
                                   Details of Species
                           -------------------------------

                               Mass of species in AMU
                                    P   30.9737600
                                    In  114.8180000

                          Electric Quadrupole Moment (Barn)
                                    P    1.0000000 No Isotope Defined
                                    In    0.7700000 Isotope115

                          Files used for pseudopotentials:
                                    P 3|1.8|4|4|5|30:31:32
                                    In 3|2.5|2.5|1.5|7|8|9|50:51:42U2.2U2.2

                           -------------------------------
                              k-Points For BZ Sampling
                           -------------------------------
                       MP grid size for SCF calculation is  4  4  4
                            with an offset of   0.125  0.125  0.125
                       Number of kpoints used =            36

                           -------------------------------
                               Symmetry and Constraints
                           -------------------------------

                      Maximum deviation from symmetry =  0.00000         ANG

                      Number of symmetry operations   =           1
                      Number of ionic constraints     =           3
                      Point group of crystal =     1: C1, 1, 1
                      Space group of crystal =     8: Cm, C -2y

             Set iprint > 1 for details on symmetry rotations/translations

                         Centre of mass is constrained
             Set iprint > 1 for details of linear ionic constraints

                         Number of cell constraints= 0
                         Cell constraints are:  1 2 3 4 5 6

                         External pressure/stress (GPa)
                          0.00000   0.00000   0.00000
                                    0.00000   0.00000
                                              0.00000
 
+---------------- MEMORY AND SCRATCH DISK ESTIMATES PER PROCESS --------------+
|                                                     Memory          Disk    |
| Baseline code, static data and system overhead      368.0 MB         0.0 MB |
| BLAS internal memory storage                          0.0 MB         0.0 MB |
| Model and support data                             4296.9 MB         0.0 MB |
| Electronic energy minimisation requirements        1299.4 MB         0.0 MB |
| Force calculation requirements                      127.4 MB         0.0 MB |
|                                               ----------------------------- |
| Approx. total storage required per process         5964.3 MB         0.0 MB |
|                                                                             |
| Requirements will fluctuate during execution and may exceed these estimates |
+-----------------------------------------------------------------------------+
Calculating approximate eigenstates for fixed initial Hamiltonian
Cut-off for approx. calculation is   89.988 eV
Improving approx. states at cut-off of  450.000 eV
Resetting cut-off to  900.000 eV
Calculating total energy with cut-off of  900.000 eV.
------------------------------------------------------------------------ <-- SCF
SCF loop      Energy           Fermi           Energy gain       Timer   <-- SCF
                               energy          per atom          (sec)   <-- SCF
------------------------------------------------------------------------ <-- SCF
Initial  -6.12899082E+004  0.00000000E+000                       419.92  <-- SCF
      1  -6.10533893E+004  2.14603182E+000  -3.75426795E+000     864.97  <-- SCF
      2  -6.10537935E+004  2.14591480E+000   6.41588055E-003    1168.11  <-- SCF
      3  -6.11171268E+004  2.46184695E+000   1.00529034E+000    1499.42  <-- SCF
      4  -6.11285148E+004  2.52794181E+000   1.80761058E-001    1983.99  <-- SCF
      5  -6.11343364E+004  2.63275763E+000   9.24073300E-002    2324.49  <-- SCF
      6  -6.11231825E+004  2.75766558E+000  -1.77046204E-001    2659.59  <-- SCF
      7  -6.11217986E+004  2.79959847E+000  -2.19678729E-002    2997.49  <-- SCF
      8  -6.11219858E+004  2.84471640E+000   2.97160282E-003    3350.42  <-- SCF
      9  -6.11228081E+004  2.86771578E+000   1.30521888E-002    3706.30  <-- SCF
     10  -6.11230853E+004  2.73812780E+000   4.40073602E-003    4049.72  <-- SCF
     11  -6.11231300E+004  2.72814253E+000   7.09979631E-004    4403.83  <-- SCF
     12  -6.11231431E+004  2.72601226E+000   2.07234131E-004    4757.40  <-- SCF
     13  -6.11231501E+004  2.72361663E+000   1.10919287E-004    5120.38  <-- SCF
     14  -6.11231508E+004  2.72274565E+000   1.20308473E-005    5480.43  <-- SCF
     15  -6.11231512E+004  2.72242726E+000   5.23203543E-006    5831.50  <-- SCF
     16  -6.11231513E+004  2.72223450E+000   1.89460659E-006    6160.00  <-- SCF
     17  -6.11231513E+004  2.72215693E+000   6.50521970E-007    6481.69  <-- SCF
     18  -6.11231513E+004  2.72215248E+000   1.95568636E-007    6791.79  <-- SCF
     19  -6.11231513E+004  2.72216699E+000   8.99144558E-008    7069.81  <-- SCF
     20  -6.11231513E+004  2.72218386E+000   1.36633942E-008    7315.25  <-- SCF
     21  -6.11231513E+004  2.72219706E+000   4.22395946E-009    7557.35  <-- SCF
     22  -6.11231513E+004  2.72220093E+000   9.47911107E-010    7803.60  <-- SCF
------------------------------------------------------------------------ <-- SCF
 
Integrated Spin Density     =    0.612162E-04 hbar/2
Integrated |Spin Density|   =    0.458446E-03 hbar/2
 
Final energy, E             =  -61122.98467696     eV
Final free energy (E-TS)    =  -61123.15133799     eV
(energies not corrected for finite basis set)
 
NB est. 0K energy (E-0.5TS)      =  -61123.06800747     eV
 

 ************************** Forces **************************
 *                                                          *
 *               Cartesian components (eV/A)                *
 * -------------------------------------------------------- *
 *                         x            y            z      *
 *                                                          *
 * P               1     -0.06542     -0.06542     -0.06783 *
 * P               2     -0.05461      0.03896     -0.01702 *
 * P               3      0.03896     -0.05461     -0.01702 *
 * P               4      0.14635      0.14635      0.10436 *
 * P               5     -0.00302     -0.00302      0.01351 *
 * P               6     -0.01820     -0.07087     -0.02412 *
 * P               7     -0.07087     -0.01820     -0.02412 *
 * P               8     -0.03296     -0.03296      0.02599 *
 * P               9      0.03300      0.00955      0.02324 *
 * P              10     -0.01222      0.05272     -0.03618 *
 * P              11      0.01661      0.01989     -0.00269 *
 * P              12      0.01441     -0.05898      0.04765 *
 * P              13     -0.01906     -0.06436     -0.03566 *
 * P              14      0.08576      0.05652      0.09178 *
 * P              15     -0.01688     -0.05355     -0.01797 *
 * P              16      0.00661      0.00364      0.01793 *
 * P              17      0.00954      0.03299      0.02325 *
 * P              18      0.01989      0.01661     -0.00269 *
 * P              19      0.05272     -0.01221     -0.03618 *
 * P              20     -0.05898      0.01441      0.04765 *
 * P              21     -0.06436     -0.01906     -0.03566 *
 * P              22     -0.05355     -0.01688     -0.01797 *
 * P              23      0.05651      0.08576      0.09178 *
 * P              24      0.00363      0.00661      0.01793 *
 * P              25     -0.22676     -0.22676     -0.34073 *
 * P              26     -0.02429      0.02990      0.01478 *
 * P              27      0.02990     -0.02429      0.01478 *
 * P              28     -0.22129     -0.22129     -0.05159 *
 * P              29      0.03856      0.03855      0.03844 *
 * P              30     -0.09092     -0.06724     -0.12882 *
 * P              31     -0.06723     -0.09092     -0.12882 *
 * P              32     -0.03703     -0.03703     -0.00419 *
 * In              1      0.02303      0.02303      0.03797 *
 * In              2     -0.05194      0.09146      0.00416 *
 * In              3      0.09147     -0.05194      0.00416 *
 * In              4      0.00311      0.00311     -0.06617 *
 * In              5      0.17450      0.17450      0.09049 *
 * In              6     -0.02769      0.01471      0.05683 *
 * In              7      0.01471     -0.02769      0.05683 *
 * In              8     -0.06799     -0.06799      0.47846 *
 * In              9      0.06511      0.07776     -0.08851 *
 * In             10     -0.05983      0.14130     -0.10498 *
 * In             11      0.02689     -0.02535     -0.05012 *
 * In             12     -0.14165      0.01552      0.03733 *
 * In             13      0.03690      0.01233     -0.02769 *
 * In             14      0.12812      0.07840     -0.02293 *
 * In             15      0.11353      0.06750      0.05012 *
 * In             16     -0.00678     -0.07123     -0.01532 *
 * In             17      0.07776      0.06510     -0.08851 *
 * In             18     -0.02535      0.02689     -0.05011 *
 * In             19      0.14130     -0.05983     -0.10498 *
 * In             20      0.01553     -0.14165      0.03733 *
 * In             21      0.01233      0.03690     -0.02770 *
 * In             22      0.06750      0.11353      0.05012 *
 * In             23      0.07840      0.12813     -0.02293 *
 * In             24     -0.07123     -0.00678     -0.01532 *
 * In             25      0.01400      0.01400     -0.03458 *
 * In             26      0.00616     -0.03985     -0.10669 *
 * In             27     -0.03985      0.00616     -0.10668 *
 * In             28     -0.00895     -0.00895     -0.02962 *
 * In             29     -0.13764     -0.12022      0.07506 *
 * In             30     -0.12023     -0.13764      0.07506 *
 * In             31      0.25398      0.25398      0.32511 *
 *                                                          *
 ************************************************************

 Pseudo atomic calculation performed for P 3s2 3p3

 Converged in 23 iterations to a total energy of -208.0292 eV

 Pseudo atomic calculation performed for In 4d10 5s2 5p1

 Converged in 42 iterations to a total energy of -1747.4501 eV
Charge spilling parameter for spin component 1 = 0.17%
Charge spilling parameter for spin component 2 = 0.17%

                   Orbital Populations                  
  ---------------------------------------------------------------
     Ion    Atom   Orbital              Up        Down      Spin
  ---------------------------------------------------------------
      P     1      S                    0.901     0.901     0.000
      P     1      Px                   0.627     0.627     0.000
      P     1      Py                   0.627     0.627     0.000
      P     1      Pz                   0.636     0.636     0.000
      P     2      S                    0.874     0.874     0.000
      P     2      Px                   0.653     0.653    -0.000
      P     2      Py                   0.647     0.647    -0.000
      P     2      Pz                   0.653     0.653     0.000
      P     3      S                    0.874     0.874     0.000
      P     3      Px                   0.647     0.647    -0.000
      P     3      Py                   0.653     0.653    -0.000
      P     3      Pz                   0.653     0.653     0.000
      P     4      S                    0.879     0.879    -0.000
      P     4      Px                   0.592     0.592     0.000
      P     4      Py                   0.592     0.592     0.000
      P     4      Pz                   0.636     0.636    -0.000
      P     5      S                    0.870     0.870    -0.000
      P     5      Px                   0.657     0.657     0.000
      P     5      Py                   0.657     0.657     0.000
      P     5      Pz                   0.649     0.650    -0.000
      P     6      S                    0.880     0.880     0.000
      P     6      Px                   0.661     0.661     0.000
      P     6      Py                   0.619     0.619     0.000
      P     6      Pz                   0.652     0.652     0.000
      P     7      S                    0.880     0.880     0.000
      P     7      Px                   0.619     0.619     0.000
      P     7      Py                   0.661     0.661     0.000
      P     7      Pz                   0.652     0.652     0.000
      P     8      S                    0.871     0.871     0.000
      P     8      Px                   0.650     0.650    -0.000
      P     8      Py                   0.650     0.650    -0.000
      P     8      Pz                   0.657     0.657    -0.000
      P     9      S                    0.869     0.869    -0.000
      P     9      Px                   0.655     0.655    -0.000
      P     9      Py                   0.657     0.657    -0.000
      P     9      Pz                   0.653     0.653     0.000
      P    10      S                    0.867     0.867    -0.000
      P    10      Px                   0.660     0.660     0.000
      P    10      Py                   0.656     0.656    -0.000
      P    10      Pz                   0.649     0.649     0.000
      P    11      S                    0.871     0.871     0.000
      P    11      Px                   0.655     0.655    -0.000
      P    11      Py                   0.656     0.655     0.000
      P    11      Pz                   0.648     0.648     0.000
      P    12      S                    0.870     0.870     0.000
      P    12      Px                   0.654     0.654    -0.000
      P    12      Py                   0.652     0.652    -0.000
      P    12      Pz                   0.655     0.655    -0.000
      P    13      S                    0.870     0.870    -0.000
      P    13      Px                   0.652     0.652    -0.000
      P    13      Py                   0.652     0.652    -0.000
      P    13      Pz                   0.655     0.655    -0.000
      P    14      S                    0.894     0.894     0.000
      P    14      Px                   0.637     0.637    -0.000
      P    14      Py                   0.629     0.629     0.000
      P    14      Pz                   0.644     0.644     0.000
      P    15      S                    0.873     0.873     0.000
      P    15      Px                   0.646     0.646    -0.000
      P    15      Py                   0.650     0.650     0.000
      P    15      Pz                   0.660     0.660     0.000
      P    16      S                    0.875     0.875    -0.000
      P    16      Px                   0.656     0.656    -0.000
      P    16      Py                   0.650     0.650     0.000
      P    16      Pz                   0.644     0.644    -0.000
      P    17      S                    0.869     0.869    -0.000
      P    17      Px                   0.657     0.657    -0.000
      P    17      Py                   0.655     0.655     0.000
      P    17      Pz                   0.653     0.653    -0.000
      P    18      S                    0.871     0.871     0.000
      P    18      Px                   0.656     0.655     0.000
      P    18      Py                   0.655     0.655    -0.000
      P    18      Pz                   0.648     0.648     0.000
      P    19      S                    0.867     0.867     0.000
      P    19      Px                   0.656     0.656    -0.000
      P    19      Py                   0.660     0.660    -0.000
      P    19      Pz                   0.649     0.649     0.000
      P    20      S                    0.870     0.870     0.000
      P    20      Px                   0.652     0.652    -0.000
      P    20      Py                   0.654     0.654     0.000
      P    20      Pz                   0.655     0.655    -0.000
      P    21      S                    0.870     0.870    -0.000
      P    21      Px                   0.652     0.652    -0.000
      P    21      Py                   0.652     0.652    -0.000
      P    21      Pz                   0.655     0.655     0.000
      P    22      S                    0.873     0.873    -0.000
      P    22      Px                   0.650     0.650     0.000
      P    22      Py                   0.646     0.646    -0.000
      P    22      Pz                   0.660     0.660     0.000
      P    23      S                    0.894     0.894    -0.000
      P    23      Px                   0.629     0.629     0.000
      P    23      Py                   0.637     0.637    -0.000
      P    23      Pz                   0.644     0.644     0.000
      P    24      S                    0.875     0.875    -0.000
      P    24      Px                   0.650     0.650     0.000
      P    24      Py                   0.656     0.656    -0.000
      P    24      Pz                   0.644     0.644    -0.000
      P    25      S                    0.893     0.893     0.000
      P    25      Px                   0.565     0.565    -0.000
      P    25      Py                   0.565     0.565    -0.000
      P    25      Pz                   0.695     0.695    -0.000
      P    26      S                    0.872     0.872     0.000
      P    26      Px                   0.651     0.651    -0.000
      P    26      Py                   0.653     0.653     0.000
      P    26      Pz                   0.653     0.653    -0.000
      P    27      S                    0.872     0.872     0.000
      P    27      Px                   0.653     0.653     0.000
      P    27      Py                   0.651     0.651    -0.000
      P    27      Pz                   0.653     0.653    -0.000
      P    28      S                    0.877     0.877     0.000
      P    28      Px                   0.642     0.642     0.000
      P    28      Py                   0.642     0.642     0.000
      P    28      Pz                   0.662     0.662    -0.000
      P    29      S                    0.870     0.870     0.000
      P    29      Px                   0.655     0.655    -0.000
      P    29      Py                   0.655     0.655    -0.000
      P    29      Pz                   0.653     0.653    -0.000
      P    30      S                    0.874     0.874    -0.000
      P    30      Px                   0.645     0.645     0.000
      P    30      Py                   0.661     0.661    -0.000
      P    30      Pz                   0.652     0.652    -0.000
      P    31      S                    0.874     0.874    -0.000
      P    31      Px                   0.661     0.661    -0.000
      P    31      Py                   0.645     0.645     0.000
      P    31      Pz                   0.652     0.652    -0.000
      P    32      S                    0.869     0.869    -0.000
      P    32      Px                   0.656     0.656     0.000
      P    32      Py                   0.656     0.656     0.000
      P    32      Pz                   0.653     0.653     0.000
     In     1      Dzz                  1.000     1.000     0.000
     In     1      Dzy                  0.999     0.999    -0.000
     In     1      Dzx                  0.999     0.999     0.000
     In     1      Dxx-yy               1.000     1.000    -0.000
     In     1      Dxy                  0.998     0.998     0.000
     In     1      S                    0.704     0.704     0.000
     In     1      Px                   0.239     0.239    -0.000
     In     1      Py                   0.239     0.239    -0.000
     In     1      Pz                   0.240     0.240    -0.000
     In     1      S                   -0.242    -0.242     0.000
     In     2      Dzz                  1.000     1.000    -0.000
     In     2      Dzy                  0.998     0.998     0.000
     In     2      Dzx                  0.999     0.999     0.000
     In     2      Dxx-yy               1.000     1.000     0.000
     In     2      Dxy                  0.999     0.999     0.000
     In     2      S                    0.706     0.706    -0.000
     In     2      Px                   0.246     0.246    -0.000
     In     2      Py                   0.241     0.241    -0.000
     In     2      Pz                   0.238     0.238    -0.000
     In     2      S                   -0.244    -0.244    -0.000
     In     3      Dzz                  1.000     1.000    -0.000
     In     3      Dzy                  0.999     0.999     0.000
     In     3      Dzx                  0.998     0.998     0.000
     In     3      Dxx-yy               1.000     1.000     0.000
     In     3      Dxy                  0.999     0.999     0.000
     In     3      S                    0.706     0.706    -0.000
     In     3      Px                   0.241     0.241    -0.000
     In     3      Py                   0.246     0.246    -0.000
     In     3      Pz                   0.238     0.238    -0.000
     In     3      S                   -0.244    -0.244    -0.000
     In     4      Dzz                  1.000     1.000    -0.000
     In     4      Dzy                  0.998     0.998    -0.000
     In     4      Dzx                  0.998     0.998    -0.000
     In     4      Dxx-yy               1.000     1.000    -0.000
     In     4      Dxy                  0.999     0.999     0.000
     In     4      S                    0.709     0.709    -0.000
     In     4      Px                   0.240     0.240     0.000
     In     4      Py                   0.240     0.240    -0.000
     In     4      Pz                   0.241     0.241    -0.000
     In     4      S                   -0.269    -0.269     0.000
     In     5      Dzz                  1.000     1.000    -0.000
     In     5      Dzy                  0.998     0.998    -0.000
     In     5      Dzx                  0.998     0.998    -0.000
     In     5      Dxx-yy               1.000     1.000    -0.000
     In     5      Dxy                  0.998     0.998     0.000
     In     5      S                    0.700     0.700     0.000
     In     5      Px                   0.240     0.240    -0.000
     In     5      Py                   0.240     0.240     0.000
     In     5      Pz                   0.247     0.247    -0.000
     In     5      S                   -0.229    -0.229    -0.000
     In     6      Dzz                  1.000     1.000    -0.000
     In     6      Dzy                  0.999     0.999    -0.000
     In     6      Dzx                  0.999     0.999     0.000
     In     6      Dxx-yy               1.000     1.000     0.000
     In     6      Dxy                  0.999     0.999     0.000
     In     6      S                    0.709     0.709     0.000
     In     6      Px                   0.233     0.233     0.000
     In     6      Py                   0.239     0.239    -0.000
     In     6      Pz                   0.236     0.236     0.000
     In     6      S                   -0.250    -0.250     0.000
     In     7      Dzz                  1.000     1.000    -0.000
     In     7      Dzy                  0.999     0.999    -0.000
     In     7      Dzx                  0.999     0.999     0.000
     In     7      Dxx-yy               1.000     1.000     0.000
     In     7      Dxy                  0.999     0.999    -0.000
     In     7      S                    0.709     0.709     0.000
     In     7      Px                   0.239     0.239    -0.000
     In     7      Py                   0.233     0.233     0.000
     In     7      Pz                   0.236     0.236     0.000
     In     7      S                   -0.250    -0.250     0.000
     In     8      Dzz                  0.999     0.999     0.000
     In     8      Dzy                  0.999     0.999    -0.000
     In     8      Dzx                  0.999     0.999    -0.000
     In     8      Dxx-yy               0.999     0.999    -0.000
     In     8      Dxy                  1.000     1.000    -0.000
     In     8      S                    0.694     0.694     0.000
     In     8      Px                   0.222     0.222     0.000
     In     8      Py                   0.222     0.222     0.000
     In     8      Pz                   0.191     0.191     0.000
     In     8      S                   -0.234    -0.234    -0.000
     In     9      Dzz                  1.000     1.000    -0.000
     In     9      Dzy                  0.999     0.998     0.000
     In     9      Dzx                  0.999     0.999    -0.000
     In     9      Dxx-yy               1.000     1.000    -0.000
     In     9      Dxy                  0.999     0.999    -0.000
     In     9      S                    0.707     0.707     0.000
     In     9      Px                   0.236     0.236    -0.000
     In     9      Py                   0.237     0.237    -0.000
     In     9      Pz                   0.240     0.240     0.000
     In     9      S                   -0.249    -0.249     0.000
     In    10      Dzz                  1.000     1.000     0.000
     In    10      Dzy                  0.999     0.999     0.000
     In    10      Dzx                  0.999     0.999     0.000
     In    10      Dxx-yy               0.999     0.999    -0.000
     In    10      Dxy                  0.999     0.999    -0.000
     In    10      S                    0.706     0.706     0.000
     In    10      Px                   0.242     0.242    -0.000
     In    10      Py                   0.234     0.234     0.000
     In    10      Pz                   0.238     0.238    -0.000
     In    10      S                   -0.224    -0.224     0.000
     In    11      Dzz                  1.000     1.000    -0.000
     In    11      Dzy                  0.999     0.999    -0.000
     In    11      Dzx                  0.998     0.998    -0.000
     In    11      Dxx-yy               1.000     1.000     0.000
     In    11      Dxy                  0.998     0.998    -0.000
     In    11      S                    0.709     0.709    -0.000
     In    11      Px                   0.244     0.244    -0.000
     In    11      Py                   0.238     0.238    -0.000
     In    11      Pz                   0.238     0.238     0.000
     In    11      S                   -0.260    -0.260     0.000
     In    12      Dzz                  1.000     1.000     0.000
     In    12      Dzy                  0.998     0.998     0.000
     In    12      Dzx                  0.998     0.998    -0.000
     In    12      Dxx-yy               1.000     1.000     0.000
     In    12      Dxy                  0.998     0.998     0.000
     In    12      S                    0.705     0.705     0.000
     In    12      Px                   0.244     0.244    -0.000
     In    12      Py                   0.240     0.240    -0.000
     In    12      Pz                   0.238     0.238     0.000
     In    12      S                   -0.256    -0.256    -0.000
     In    13      Dzz                  1.000     1.000    -0.000
     In    13      Dzy                  0.999     0.999    -0.000
     In    13      Dzx                  0.999     0.999     0.000
     In    13      Dxx-yy               1.000     1.000    -0.000
     In    13      Dxy                  0.998     0.998    -0.000
     In    13      S                    0.712     0.712    -0.000
     In    13      Px                   0.242     0.242     0.000
     In    13      Py                   0.235     0.235     0.000
     In    13      Pz                   0.237     0.237     0.000
     In    13      S                   -0.246    -0.246     0.000
     In    14      Dzz                  1.000     0.999     0.000
     In    14      Dzy                  0.998     0.998     0.000
     In    14      Dzx                  0.998     0.998     0.000
     In    14      Dxx-yy               1.000     1.000     0.000
     In    14      Dxy                  0.999     0.999     0.000
     In    14      S                    0.686     0.686     0.000
     In    14      Px                   0.248     0.248     0.000
     In    14      Py                   0.249     0.249     0.000
     In    14      Pz                   0.241     0.241    -0.000
     In    14      S                   -0.205    -0.205    -0.000
     In    15      Dzz                  1.000     1.000    -0.000
     In    15      Dzy                  0.998     0.998    -0.000
     In    15      Dzx                  0.999     0.999     0.000
     In    15      Dxx-yy               1.000     1.000     0.000
     In    15      Dxy                  0.999     0.999     0.000
     In    15      S                    0.710     0.710     0.000
     In    15      Px                   0.237     0.237    -0.000
     In    15      Py                   0.237     0.237     0.000
     In    15      Pz                   0.240     0.240     0.000
     In    15      S                   -0.262    -0.262    -0.000
     In    16      Dzz                  1.000     1.000    -0.000
     In    16      Dzy                  0.998     0.998     0.000
     In    16      Dzx                  0.999     0.999     0.000
     In    16      Dxx-yy               1.000     1.000    -0.000
     In    16      Dxy                  0.998     0.998     0.000
     In    16      S                    0.708     0.708    -0.000
     In    16      Px                   0.237     0.237     0.000
     In    16      Py                   0.241     0.241     0.000
     In    16      Pz                   0.244     0.244     0.000
     In    16      S                   -0.244    -0.244    -0.000
     In    17      Dzz                  1.000     1.000    -0.000
     In    17      Dzy                  0.999     0.999    -0.000
     In    17      Dzx                  0.999     0.998     0.000
     In    17      Dxx-yy               1.000     1.000     0.000
     In    17      Dxy                  0.999     0.999    -0.000
     In    17      S                    0.707     0.707    -0.000
     In    17      Px                   0.237     0.237    -0.000
     In    17      Py                   0.236     0.236    -0.000
     In    17      Pz                   0.240     0.240     0.000
     In    17      S                   -0.249    -0.249     0.000
     In    18      Dzz                  1.000     1.000    -0.000
     In    18      Dzy                  0.998     0.998    -0.000
     In    18      Dzx                  0.999     0.999    -0.000
     In    18      Dxx-yy               1.000     1.000     0.000
     In    18      Dxy                  0.998     0.998    -0.000
     In    18      S                    0.709     0.709    -0.000
     In    18      Px                   0.238     0.238    -0.000
     In    18      Py                   0.244     0.244    -0.000
     In    18      Pz                   0.238     0.238     0.000
     In    18      S                   -0.260    -0.260     0.000
     In    19      Dzz                  1.000     1.000     0.000
     In    19      Dzy                  0.999     0.999     0.000
     In    19      Dzx                  0.999     0.999    -0.000
     In    19      Dxx-yy               0.999     0.999    -0.000
     In    19      Dxy                  0.999     0.999    -0.000
     In    19      S                    0.706     0.706     0.000
     In    19      Px                   0.234     0.234    -0.000
     In    19      Py                   0.242     0.242    -0.000
     In    19      Pz                   0.238     0.238    -0.000
     In    19      S                   -0.224    -0.224     0.000
     In    20      Dzz                  1.000     1.000    -0.000
     In    20      Dzy                  0.998     0.998    -0.000
     In    20      Dzx                  0.998     0.998    -0.000
     In    20      Dxx-yy               1.000     1.000     0.000
     In    20      Dxy                  0.998     0.998    -0.000
     In    20      S                    0.705     0.705     0.000
     In    20      Px                   0.240     0.240    -0.000
     In    20      Py                   0.244     0.244    -0.000
     In    20      Pz                   0.238     0.238    -0.000
     In    20      S                   -0.256    -0.256    -0.000
     In    21      Dzz                  1.000     1.000    -0.000
     In    21      Dzy                  0.999     0.999     0.000
     In    21      Dzx                  0.999     0.999     0.000
     In    21      Dxx-yy               1.000     1.000    -0.000
     In    21      Dxy                  0.998     0.998    -0.000
     In    21      S                    0.712     0.712    -0.000
     In    21      Px                   0.235     0.235     0.000
     In    21      Py                   0.242     0.242     0.000
     In    21      Pz                   0.237     0.237     0.000
     In    21      S                   -0.246    -0.246     0.000
     In    22      Dzz                  1.000     1.000    -0.000
     In    22      Dzy                  0.999     0.999    -0.000
     In    22      Dzx                  0.998     0.998     0.000
     In    22      Dxx-yy               1.000     1.000     0.000
     In    22      Dxy                  0.999     0.999     0.000
     In    22      S                    0.710     0.710     0.000
     In    22      Px                   0.237     0.237     0.000
     In    22      Py                   0.237     0.237    -0.000
     In    22      Pz                   0.240     0.240     0.000
     In    22      S                   -0.262    -0.262     0.000
     In    23      Dzz                  1.000     0.999     0.000
     In    23      Dzy                  0.998     0.998     0.000
     In    23      Dzx                  0.998     0.998     0.000
     In    23      Dxx-yy               1.000     1.000     0.000
     In    23      Dxy                  0.999     0.999     0.000
     In    23      S                    0.686     0.686     0.000
     In    23      Px                   0.249     0.249     0.000
     In    23      Py                   0.248     0.248     0.000
     In    23      Pz                   0.241     0.241     0.000
     In    23      S                   -0.205    -0.205    -0.000
     In    24      Dzz                  1.000     1.000    -0.000
     In    24      Dzy                  0.999     0.999     0.000
     In    24      Dzx                  0.998     0.998     0.000
     In    24      Dxx-yy               1.000     1.000    -0.000
     In    24      Dxy                  0.998     0.998     0.000
     In    24      S                    0.708     0.708    -0.000
     In    24      Px                   0.241     0.241     0.000
     In    24      Py                   0.237     0.237     0.000
     In    24      Pz                   0.244     0.244     0.000
     In    24      S                   -0.244    -0.244    -0.000
     In    25      Dzz                  1.000     1.000     0.000
     In    25      Dzy                  0.998     0.998    -0.000
     In    25      Dzx                  0.998     0.998    -0.000
     In    25      Dxx-yy               1.000     1.000    -0.000
     In    25      Dxy                  0.998     0.998    -0.000
     In    25      S                    0.706     0.706     0.000
     In    25      Px                   0.243     0.243    -0.000
     In    25      Py                   0.243     0.243    -0.000
     In    25      Pz                   0.233     0.233     0.000
     In    25      S                   -0.267    -0.267    -0.000
     In    26      Dzz                  1.000     1.000     0.000
     In    26      Dzy                  0.999     0.999    -0.000
     In    26      Dzx                  0.998     0.998    -0.000
     In    26      Dxx-yy               0.999     0.999    -0.000
     In    26      Dxy                  0.999     0.999    -0.000
     In    26      S                    0.691     0.691     0.000
     In    26      Px                   0.244     0.244     0.000
     In    26      Py                   0.237     0.237    -0.000
     In    26      Pz                   0.243     0.243    -0.000
     In    26      S                   -0.231    -0.231    -0.000
     In    27      Dzz                  1.000     1.000     0.000
     In    27      Dzy                  0.998     0.998     0.000
     In    27      Dzx                  0.999     0.999     0.000
     In    27      Dxx-yy               0.999     0.999     0.000
     In    27      Dxy                  0.999     0.999    -0.000
     In    27      S                    0.691     0.691     0.000
     In    27      Px                   0.237     0.237    -0.000
     In    27      Py                   0.244     0.244     0.000
     In    27      Pz                   0.243     0.243    -0.000
     In    27      S                   -0.231    -0.231    -0.000
     In    28      Dzz                  1.000     1.000     0.000
     In    28      Dzy                  0.998     0.998    -0.000
     In    28      Dzx                  0.998     0.998    -0.000
     In    28      Dxx-yy               1.000     1.000     0.000
     In    28      Dxy                  0.999     0.999     0.000
     In    28      S                    0.707     0.707    -0.000
     In    28      Px                   0.238     0.238    -0.000
     In    28      Py                   0.238     0.238    -0.000
     In    28      Pz                   0.242     0.242    -0.000
     In    28      S                   -0.251    -0.251    -0.000
     In    29      Dzz                  1.000     1.000    -0.000
     In    29      Dzy                  0.999     0.999    -0.000
     In    29      Dzx                  0.999     0.999     0.000
     In    29      Dxx-yy               1.000     1.000     0.000
     In    29      Dxy                  0.998     0.998    -0.000
     In    29      S                    0.703     0.703    -0.000
     In    29      Px                   0.243     0.243    -0.000
     In    29      Py                   0.240     0.240     0.000
     In    29      Pz                   0.235     0.235     0.000
     In    29      S                   -0.243    -0.243     0.000
     In    30      Dzz                  1.000     1.000    -0.000
     In    30      Dzy                  0.999     0.999     0.000
     In    30      Dzx                  0.999     0.999    -0.000
     In    30      Dxx-yy               1.000     1.000     0.000
     In    30      Dxy                  0.998     0.998    -0.000
     In    30      S                    0.703     0.703    -0.000
     In    30      Px                   0.240     0.240     0.000
     In    30      Py                   0.243     0.243    -0.000
     In    30      Pz                   0.235     0.235    -0.000
     In    30      S                   -0.243    -0.243     0.000
     In    31      Dzz                  1.000     1.000    -0.000
     In    31      Dzy                  0.999     0.999    -0.000
     In    31      Dzx                  0.999     0.999    -0.000
     In    31      Dxx-yy               1.000     1.000    -0.000
     In    31      Dxy                  0.999     0.999     0.000
     In    31      S                    0.726     0.726    -0.000
     In    31      Px                   0.225     0.225     0.000
     In    31      Py                   0.225     0.225     0.000
     In    31      Pz                   0.217     0.217    -0.000
     In    31      S                   -0.229    -0.229     0.000
  ---------------------------------------------------------------
                           Total:     281.500   281.500    -0.000
  ---------------------------------------------------------------

     Atomic Populations (Mulliken)
     -----------------------------
Species          Ion Spin      s       p       d       f      Total   Charge(e)   Spin(hbar/2)
==============================================================================================
  P               1   up:     0.901   1.891   0.000   0.000   2.792    -0.584        0.000
                  1   dn:     0.901   1.891   0.000   0.000   2.792
  P               2   up:     0.874   1.953   0.000   0.000   2.827    -0.653       -0.000
                  2   dn:     0.874   1.953   0.000   0.000   2.827
  P               3   up:     0.874   1.953   0.000   0.000   2.827    -0.653       -0.000
                  3   dn:     0.874   1.953   0.000   0.000   2.827
  P               4   up:     0.879   1.821   0.000   0.000   2.699    -0.399       -0.000
                  4   dn:     0.879   1.821   0.000   0.000   2.700
  P               5   up:     0.870   1.964   0.000   0.000   2.834    -0.668       -0.000
                  5   dn:     0.870   1.964   0.000   0.000   2.834
  P               6   up:     0.880   1.932   0.000   0.000   2.813    -0.625        0.000
                  6   dn:     0.880   1.932   0.000   0.000   2.813
  P               7   up:     0.880   1.932   0.000   0.000   2.813    -0.625        0.000
                  7   dn:     0.880   1.932   0.000   0.000   2.813
  P               8   up:     0.871   1.957   0.000   0.000   2.828    -0.656       -0.000
                  8   dn:     0.871   1.957   0.000   0.000   2.828
  P               9   up:     0.869   1.965   0.000   0.000   2.834    -0.668       -0.000
                  9   dn:     0.869   1.965   0.000   0.000   2.834
  P              10   up:     0.867   1.965   0.000   0.000   2.832    -0.664       -0.000
                 10   dn:     0.867   1.965   0.000   0.000   2.832
  P              11   up:     0.871   1.959   0.000   0.000   2.830    -0.660        0.000
                 11   dn:     0.871   1.959   0.000   0.000   2.830
  P              12   up:     0.870   1.961   0.000   0.000   2.832    -0.664       -0.000
                 12   dn:     0.870   1.961   0.000   0.000   2.832
  P              13   up:     0.870   1.959   0.000   0.000   2.829    -0.658       -0.000
                 13   dn:     0.870   1.959   0.000   0.000   2.829
  P              14   up:     0.894   1.910   0.000   0.000   2.804    -0.607        0.000
                 14   dn:     0.894   1.910   0.000   0.000   2.804
  P              15   up:     0.873   1.956   0.000   0.000   2.829    -0.657        0.000
                 15   dn:     0.873   1.956   0.000   0.000   2.829
  P              16   up:     0.875   1.950   0.000   0.000   2.825    -0.650       -0.000
                 16   dn:     0.875   1.950   0.000   0.000   2.825
  P              17   up:     0.869   1.965   0.000   0.000   2.834    -0.668       -0.000
                 17   dn:     0.869   1.965   0.000   0.000   2.834
  P              18   up:     0.871   1.959   0.000   0.000   2.830    -0.660        0.000
                 18   dn:     0.871   1.959   0.000   0.000   2.830
  P              19   up:     0.867   1.965   0.000   0.000   2.832    -0.664        0.000
                 19   dn:     0.867   1.965   0.000   0.000   2.832
  P              20   up:     0.870   1.961   0.000   0.000   2.832    -0.664       -0.000
                 20   dn:     0.870   1.961   0.000   0.000   2.832
  P              21   up:     0.870   1.959   0.000   0.000   2.829    -0.658       -0.000
                 21   dn:     0.870   1.959   0.000   0.000   2.829
  P              22   up:     0.873   1.956   0.000   0.000   2.829    -0.657        0.000
                 22   dn:     0.873   1.956   0.000   0.000   2.829
  P              23   up:     0.894   1.910   0.000   0.000   2.804    -0.607        0.000
                 23   dn:     0.894   1.910   0.000   0.000   2.804
  P              24   up:     0.875   1.950   0.000   0.000   2.825    -0.650       -0.000
                 24   dn:     0.875   1.950   0.000   0.000   2.825
  P              25   up:     0.893   1.824   0.000   0.000   2.716    -0.433       -0.000
                 25   dn:     0.893   1.824   0.000   0.000   2.716
  P              26   up:     0.872   1.957   0.000   0.000   2.828    -0.657       -0.000
                 26   dn:     0.872   1.957   0.000   0.000   2.828
  P              27   up:     0.872   1.957   0.000   0.000   2.828    -0.657       -0.000
                 27   dn:     0.872   1.957   0.000   0.000   2.828
  P              28   up:     0.877   1.945   0.000   0.000   2.823    -0.646        0.000
                 28   dn:     0.877   1.945   0.000   0.000   2.823
  P              29   up:     0.870   1.963   0.000   0.000   2.832    -0.665       -0.000
                 29   dn:     0.870   1.963   0.000   0.000   2.832
  P              30   up:     0.874   1.957   0.000   0.000   2.831    -0.661       -0.000
                 30   dn:     0.874   1.957   0.000   0.000   2.831
  P              31   up:     0.874   1.957   0.000   0.000   2.831    -0.661       -0.000
                 31   dn:     0.874   1.957   0.000   0.000   2.831
  P              32   up:     0.869   1.965   0.000   0.000   2.834    -0.668        0.000
                 32   dn:     0.869   1.965   0.000   0.000   2.834
  In              1   up:     0.463   0.719   4.995   0.000   6.176     0.648        0.000
                  1   dn:     0.463   0.719   4.995   0.000   6.176
  In              2   up:     0.462   0.725   4.995   0.000   6.181     0.637       -0.000
                  2   dn:     0.462   0.725   4.995   0.000   6.181
  In              3   up:     0.462   0.725   4.995   0.000   6.181     0.637       -0.000
                  3   dn:     0.462   0.725   4.995   0.000   6.181
  In              4   up:     0.439   0.721   4.995   0.000   6.155     0.689       -0.000
                  4   dn:     0.439   0.721   4.995   0.000   6.155
  In              5   up:     0.471   0.727   4.995   0.000   6.192     0.616       -0.000
                  5   dn:     0.471   0.727   4.995   0.000   6.192
  In              6   up:     0.459   0.707   4.995   0.000   6.161     0.678        0.000
                  6   dn:     0.459   0.707   4.995   0.000   6.161
  In              7   up:     0.459   0.707   4.995   0.000   6.161     0.678        0.000
                  7   dn:     0.459   0.707   4.995   0.000   6.161
  In              8   up:     0.460   0.635   4.996   0.000   6.091     0.818        0.000
                  8   dn:     0.460   0.635   4.996   0.000   6.091
  In              9   up:     0.458   0.713   4.995   0.000   6.166     0.668       -0.000
                  9   dn:     0.458   0.713   4.995   0.000   6.166
  In             10   up:     0.482   0.715   4.995   0.000   6.192     0.617        0.000
                 10   dn:     0.482   0.715   4.995   0.000   6.192
  In             11   up:     0.449   0.720   4.995   0.000   6.163     0.674       -0.000
                 11   dn:     0.449   0.720   4.995   0.000   6.163
  In             12   up:     0.449   0.723   4.994   0.000   6.166     0.667       -0.000
                 12   dn:     0.449   0.723   4.994   0.000   6.166
  In             13   up:     0.467   0.714   4.995   0.000   6.176     0.649       -0.000
                 13   dn:     0.467   0.714   4.995   0.000   6.176
  In             14   up:     0.481   0.738   4.994   0.000   6.213     0.574        0.000
                 14   dn:     0.481   0.738   4.994   0.000   6.213
  In             15   up:     0.448   0.715   4.995   0.000   6.157     0.685        0.000
                 15   dn:     0.448   0.715   4.995   0.000   6.157
  In             16   up:     0.463   0.722   4.995   0.000   6.180     0.640        0.000
                 16   dn:     0.463   0.722   4.995   0.000   6.180
  In             17   up:     0.458   0.713   4.995   0.000   6.166     0.668       -0.000
                 17   dn:     0.458   0.713   4.995   0.000   6.166
  In             18   up:     0.449   0.720   4.995   0.000   6.163     0.674       -0.000
                 18   dn:     0.449   0.720   4.995   0.000   6.163
  In             19   up:     0.482   0.715   4.995   0.000   6.192     0.617        0.000
                 19   dn:     0.482   0.715   4.995   0.000   6.192
  In             20   up:     0.449   0.723   4.994   0.000   6.166     0.667       -0.000
                 20   dn:     0.449   0.723   4.994   0.000   6.166
  In             21   up:     0.467   0.714   4.995   0.000   6.176     0.649       -0.000
                 21   dn:     0.467   0.714   4.995   0.000   6.176
  In             22   up:     0.448   0.715   4.995   0.000   6.157     0.685        0.000
                 22   dn:     0.448   0.715   4.995   0.000   6.157
  In             23   up:     0.481   0.738   4.994   0.000   6.213     0.574        0.000
                 23   dn:     0.481   0.738   4.994   0.000   6.213
  In             24   up:     0.463   0.722   4.995   0.000   6.180     0.640        0.000
                 24   dn:     0.463   0.722   4.995   0.000   6.180
  In             25   up:     0.439   0.720   4.995   0.000   6.153     0.694       -0.000
                 25   dn:     0.439   0.720   4.995   0.000   6.153
  In             26   up:     0.460   0.724   4.995   0.000   6.179     0.643        0.000
                 26   dn:     0.460   0.724   4.995   0.000   6.179
  In             27   up:     0.460   0.724   4.995   0.000   6.179     0.643        0.000
                 27   dn:     0.460   0.724   4.995   0.000   6.179
  In             28   up:     0.456   0.719   4.995   0.000   6.169     0.661       -0.000
                 28   dn:     0.456   0.719   4.995   0.000   6.169
  In             29   up:     0.460   0.719   4.995   0.000   6.174     0.652       -0.000
                 29   dn:     0.460   0.719   4.995   0.000   6.174
  In             30   up:     0.460   0.719   4.995   0.000   6.174     0.652       -0.000
                 30   dn:     0.460   0.719   4.995   0.000   6.174
  In             31   up:     0.497   0.668   4.996   0.000   6.161     0.678       -0.000
                 31   dn:     0.497   0.668   4.996   0.000   6.161
==============================================================================================

                 Bond                   Population        Spin       Length (A)
================================================================================
              P 4  -- P 25                   0.56        -0.00          2.37139
              P 21 -- In 23                  0.71        -0.00          2.52344
              P 13 -- In 14                  0.71        -0.00          2.52344
              P 1  -- In 3                   0.78        -0.00          2.53320
              P 1  -- In 2                   0.78        -0.00          2.53320
              P 19 -- In 19                  0.64        -0.00          2.53862
              P 10 -- In 10                  0.64        -0.00          2.53862
              P 19 -- In 20                  0.67        -0.00          2.53866
              P 10 -- In 12                  0.67        -0.00          2.53866
              P 4  -- In 8                   0.75        -0.00          2.53973
              P 8  -- In 25                  0.68        -0.00          2.54273
              P 1  -- In 5                   0.78        -0.00          2.54669
              P 32 -- In 22                  0.66        -0.00          2.54846
              P 32 -- In 15                  0.66        -0.00          2.54846
              P 8  -- In 4                   0.68        -0.00          2.54970
              P 23 -- In 24                  0.72        -0.00          2.54995
              P 14 -- In 16                  0.72        -0.00          2.54995
              P 14 -- In 14                  0.69         0.00          2.55151
              P 23 -- In 23                  0.69         0.00          2.55151
              P 17 -- In 19                  0.67         0.00          2.55237
              P 9  -- In 10                  0.67         0.00          2.55237
              P 16 -- In 12                  0.66        -0.00          2.55290
              P 24 -- In 20                  0.66         0.00          2.55290
              P 29 -- In 25                  0.65        -0.00          2.55316
              P 10 -- In 27                  0.64         0.00          2.55347
              P 19 -- In 26                  0.64        -0.00          2.55347
              P 9  -- In 13                  0.65        -0.00          2.55658
              P 17 -- In 21                  0.65        -0.00          2.55658
              P 11 -- In 1                   0.64         0.00          2.55730
              P 18 -- In 1                   0.64         0.00          2.55730
              P 29 -- In 28                  0.66        -0.00          2.55796
              P 5  -- In 7                   0.64         0.00          2.55804
              P 5  -- In 6                   0.64         0.00          2.55804
              P 21 -- In 20                  0.63         0.00          2.55817
              P 13 -- In 12                  0.63         0.00          2.55817
              P 17 -- In 18                  0.65        -0.00          2.55821
              P 9  -- In 11                  0.65        -0.00          2.55821
              P 28 -- In 18                  0.64        -0.00          2.56071
              P 28 -- In 11                  0.64        -0.00          2.56071
              P 20 -- In 13                  0.66         0.00          2.56239
              P 12 -- In 21                  0.66         0.00          2.56239
              P 6  -- In 23                  0.58        -0.00          2.56269
              P 7  -- In 14                  0.58        -0.00          2.56269
              P 10 -- In 25                  0.66        -0.00          2.56285
              P 19 -- In 25                  0.66         0.00          2.56285
              P 27 -- In 18                  0.64        -0.00          2.56428
              P 26 -- In 11                  0.64        -0.00          2.56428
              P 11 -- In 12                  0.63         0.00          2.56433
              P 18 -- In 20                  0.63         0.00          2.56433
              P 32 -- In 1                   0.64        -0.00          2.56461
              P 3  -- In 4                   0.64        -0.00          2.56506
              P 2  -- In 4                   0.64         0.00          2.56506
              P 31 -- In 30                  0.62        -0.00          2.56510
              P 30 -- In 29                  0.62        -0.00          2.56510
              P 23 -- In 29                  0.74        -0.00          2.56586
              P 14 -- In 30                  0.74        -0.00          2.56586
              P 21 -- In 22                  0.64         0.00          2.56658
              P 13 -- In 15                  0.64         0.00          2.56658
              P 26 -- In 9                   0.64        -0.00          2.56669
              P 27 -- In 17                  0.64        -0.00          2.56669
              P 32 -- In 28                  0.64        -0.00          2.56705
              P 18 -- In 18                  0.65        -0.00          2.56816
              P 11 -- In 11                  0.65        -0.00          2.56816
              P 27 -- In 28                  0.63        -0.00          2.56849
              P 26 -- In 28                  0.63        -0.00          2.56849
              P 31 -- In 31                  0.67         0.00          2.56933
              P 30 -- In 31                  0.67         0.00          2.56933
              P 12 -- In 2                   0.63        -0.00          2.56946
              P 20 -- In 3                   0.63        -0.00          2.56946
              P 20 -- In 26                  0.67         0.00          2.56958
              P 12 -- In 27                  0.67         0.00          2.56959
              P 5  -- In 1                   0.64         0.00          2.56962
              P 6  -- In 21                  0.64        -0.00          2.57032
              P 7  -- In 13                  0.64        -0.00          2.57032
              P 22 -- In 22                  0.66         0.00          2.57150
              P 15 -- In 15                  0.66         0.00          2.57150
              P 22 -- In 24                  0.62        -0.00          2.57224
              P 15 -- In 16                  0.62        -0.00          2.57224
              P 29 -- In 30                  0.64        -0.00          2.57378
              P 29 -- In 29                  0.64        -0.00          2.57378
              P 20 -- In 24                  0.62        -0.00          2.57433
              P 12 -- In 16                  0.62         0.00          2.57433
              P 3  -- In 10                  0.68        -0.00          2.57514
              P 2  -- In 19                  0.68        -0.00          2.57514
              P 5  -- In 4                   0.64        -0.00          2.57584
              P 22 -- In 7                   0.66        -0.00          2.57735
              P 15 -- In 6                   0.66        -0.00          2.57735
              P 31 -- In 22                  0.63         0.00          2.57831
              P 30 -- In 15                  0.63         0.00          2.57831
              P 21 -- In 17                  0.62         0.00          2.57840
              P 13 -- In 9                   0.62         0.00          2.57840
              P 22 -- In 5                   0.60         0.00          2.57851
              P 15 -- In 5                   0.60        -0.00          2.57851
              P 27 -- In 27                  0.67         0.00          2.57854
              P 26 -- In 26                  0.67         0.00          2.57854
              P 17 -- In 24                  0.61        -0.00          2.57929
              P 9  -- In 16                  0.61        -0.00          2.57929
              P 24 -- In 9                   0.63         0.00          2.58065
              P 16 -- In 17                  0.63        -0.00          2.58065
              P 18 -- In 3                   0.62        -0.00          2.58116
              P 11 -- In 2                   0.62        -0.00          2.58116
              P 31 -- In 21                  0.60        -0.00          2.58270
              P 30 -- In 13                  0.60        -0.00          2.58270
              P 28 -- In 5                   0.59         0.00          2.58406
              P 3  -- In 9                   0.63        -0.00          2.58407
              P 2  -- In 17                  0.63        -0.00          2.58407
              P 3  -- In 3                   0.59        -0.00          2.59685
              P 2  -- In 2                   0.59        -0.00          2.59685
              P 24 -- In 7                   0.62        -0.00          2.59819
              P 16 -- In 6                   0.62        -0.00          2.59819
              P 16 -- In 30                  0.61        -0.00          2.60422
              P 24 -- In 29                  0.61        -0.00          2.60422
              P 8  -- In 14                  0.63         0.00          2.60674
              P 8  -- In 23                  0.63         0.00          2.60674
              P 7  -- In 7                   0.65         0.00          2.60761
              P 6  -- In 6                   0.65         0.00          2.60761
              P 25 -- In 26                  0.64         0.00          2.60800
              P 25 -- In 27                  0.64         0.00          2.60800
              P 28 -- In 31                  0.61        -0.00          2.63711
              P 4  -- In 10                  0.53        -0.00          2.64425
              P 4  -- In 19                  0.53        -0.00          2.64425
              P 6  -- In 8                   0.54         0.00          2.69140
              P 7  -- In 8                   0.54         0.00          2.69140
              P 25 -- In 31                  0.33        -0.00          2.94793
================================================================================

 Hirshfeld supercell size:           2           2           2
Standard grid dimensions: 240 240 240
Fine grid dimensions:     240 240 240


     Hirshfeld Analysis
     ------------------
Species   Ion     Hirshfeld Charge (e)  Spin (hbar/2)
===================================================
  P        1                -0.25        0.00
  P        2                -0.23        0.00
  P        3                -0.23        0.00
  P        4                -0.11        0.00
  P        5                -0.24       -0.00
  P        6                -0.23        0.00
  P        7                -0.23        0.00
  P        8                -0.24        0.00
  P        9                -0.24        0.00
  P       10                -0.24        0.00
  P       11                -0.23       -0.00
  P       12                -0.24        0.00
  P       13                -0.23        0.00
  P       14                -0.25       -0.00
  P       15                -0.23        0.00
  P       16                -0.23        0.00
  P       17                -0.24        0.00
  P       18                -0.23       -0.00
  P       19                -0.24        0.00
  P       20                -0.24        0.00
  P       21                -0.23        0.00
  P       22                -0.23        0.00
  P       23                -0.25       -0.00
  P       24                -0.23        0.00
  P       25                -0.14        0.00
  P       26                -0.23        0.00
  P       27                -0.23        0.00
  P       28                -0.23       -0.00
  P       29                -0.24        0.00
  P       30                -0.23        0.00
  P       31                -0.23        0.00
  P       32                -0.24       -0.00
  In       1                 0.24       -0.00
  In       2                 0.22       -0.00
  In       3                 0.22       -0.00
  In       4                 0.23        0.00
  In       5                 0.22       -0.00
  In       6                 0.25        0.00
  In       7                 0.25        0.00
  In       8                 0.31        0.00
  In       9                 0.24        0.00
  In      10                 0.24        0.00
  In      11                 0.24       -0.00
  In      12                 0.23       -0.00
  In      13                 0.23        0.00
  In      14                 0.20        0.00
  In      15                 0.24        0.00
  In      16                 0.22        0.00
  In      17                 0.24        0.00
  In      18                 0.24       -0.00
  In      19                 0.24        0.00
  In      20                 0.23       -0.00
  In      21                 0.23        0.00
  In      22                 0.24        0.00
  In      23                 0.20        0.00
  In      24                 0.22        0.00
  In      25                 0.23        0.00
  In      26                 0.22        0.00
  In      27                 0.22        0.00
  In      28                 0.24       -0.00
  In      29                 0.23        0.00
  In      30                 0.23        0.00
  In      31                 0.28        0.00
===================================================

 
 A BibTeX formatted list of references used in this run has been written to 
 In_Vacancy_Migration_15->60_Singlepoints_3.bib
 
Initialisation time =     30.09 s
Calculation time    =   8037.58 s
Finalisation time   =    156.12 s
Total time          =   8223.80 s
Peak Memory Use     = 9569808 kB
 
Overall parallel efficiency rating: Terrible (34%)
 
Data was distributed by:-
G-vector (3-way); efficiency rating: Poor (38%)
k-point (36-way); efficiency rating: Very good (80%)
