 +-------------------------------------------------+
 |                                                 |
 |      CCC   AA    SSS  TTTTT  EEEEE  PPPP        |
 |     C     A  A  S       T    E      P   P       |
 |     C     AAAA   SS     T    EEE    PPPP        |
 |     C     A  A     S    T    E      P           |
 |      CCC  A  A  SSS     T    EEEEE  P           |
 |                                                 |
 +-------------------------------------------------+
 |                                                 |
 | Welcome to Academic Release CASTEP version 24.1 |
 | Ab Initio Total Energy Program                  |
 |                                                 |
 | Authors:                                        |
 | M. Segall, M. Probert, C. Pickard, P. Hasnip,   |
 | S. Clark, K. Refson, J. R. Yates,               |
 | A. Bartok-Partay, M. Payne                      |
 |                                                 |
 | Contributors:                                   |
 | P. Lindan, P. Haynes, J. White, V. Milman,      |
 | N. Govind, M. Gibson, P. Tulip, V. Cocula,      |
 | B. Montanari, D. Quigley, M. Glover,            |
 | L. Bernasconi, A. Perlov, M. Plummer,           |
 | E. McNellis, J. Meyer, J. Gale, D. Jochym       |
 | J. Aarons, B. Walker, R. Gillen, D. Jones       |
 | T. Green, I. J. Bush, C. J. Armstrong,          |
 | E. J. Higgins, E. L. Brown, M. S. McFly,        |
 | J. Wilkins, B-C. Shih, P. J. P. Byrne,          |
 | R. J. Maurer, J. C. Womack, J. Dziedzic,        |
 | L. LeBlanc, T. K. Stenczel, J. Kermode,         |
 | S. Sturniolo, B. Shi, B. Durham, M. Evans,      |
 | M. J. Smith, A. Tamerus, Z. Hawkhead,           |
 | V. Ravindran, T. Hollins, S. A. Joyce,          |
 | R. T. Strong, A. M. Reilly, S. J. Donaldson     |
 |                                                 |
 | Copyright (c) 2000 - 2023                       |
 |                                                 |
 |     Distributed under license from Cambridge    |
 |     Enterprise for academic use only.           |
 |                                                 |
 | Please cite                                     |
 |                                                 |
 |     "First principles methods using CASTEP"     |
 |                                                 |
 |         Zeitschrift fuer Kristallographie       |
 |           220(5-6) pp. 567-570 (2005)           |
 |                                                 |
 | S. J. Clark, M. D. Segall, C. J. Pickard,       |
 | P. J. Hasnip, M. J. Probert, K. Refson,         |
 | M. C. Payne                                     |
 |                                                 |
 |       in all publications arising from          |
 |              your use of CASTEP                 |
 |                                                 |
 +-------------------------------------------------+
 |                                                 |
 |              http://www.castep.org              |
 |                                                 |
 +-------------------------------------------------+



 Compiled for  GNU 11.2.0 on 04-04-2024 18:39:17
 from code version 6355fd106 Castep241_branch Thu Mar 7 17:56:19 2024 +0000
 Compiler: GNU Fortran 11.2.0; Optimisation: FAST
 Comms   : MPI VERSION : CRAY MPICH version 8.1.23.14 (ANL base 3.4a2)
 MATHLIBS: default (LAPACK version 3.10.1)
 FFT Lib : fftw3 version commercial-fftw-3.3.10-sse2-avx-avx2-avx2_128
 Fundamental constants values: CODATA 2018

 Run started: Wed, 02 Apr 2025 13:29:37 +0100

 Atomic calculation performed for P: 1s2 2s2 2p6 3s2 3p3

 Converged in 47 iterations to an ae energy of -9309.074 eV

   ============================================================                
   | Pseudopotential Report - Date of generation  2-04-2025   |                
   ------------------------------------------------------------                
   | Element: P Ionic charge:  5.00 Level of theory: RSCAN    |                
   | Atomic Solver: Koelling-Harmon                           |                
   |                                                          |                
   |               Reference Electronic Structure             |                
   |         Orbital         Occupation         Energy        |                
   |            3s              2.000           -0.535        |                
   |            3p              3.000           -0.209        |                
   |                                                          |                
   |                 Pseudopotential Definition               |                
   |        Beta     l      e      Rc     scheme   norm       |                
   |          1      0   -0.535   1.807     qc      0         |                
   |          2      0    0.250   1.807     qc      0         |                
   |          3      1   -0.209   1.807     qc      0         |                
   |          4      1    0.250   1.807     qc      0         |                
   |          5      2    0.000   1.807     qc      0         |                
   |          6      2    0.250   1.807     qc      0         |                
   |         loc     3    0.000   1.807     pn      0         |                
   |                                                          |                
   | Augmentation charge Rinner = 1.263                       |                
   | Partial core correction Rc = 1.263                       |                
   ------------------------------------------------------------                
   | "3|1.8|4|4|5|30:31:32"                                   |                
   ------------------------------------------------------------                
   |      Author: Chris J. Pickard, Cambridge University      |                
   ============================================================                
 Warning: otfg_output_psp cannot write out meta-GGA pseudopotentials presently.

 Atomic calculation performed for In:
 1s2 2s2 2p6 3s2 3p6 3d10 4s2 4p6 4d10 5s2 5p1

 Converged in 84 iterations to an ae energy of -160093.328 eV

   ============================================================                
   | Pseudopotential Report - Date of generation  2-04-2025   |                
   ------------------------------------------------------------                
   | Element: In Ionic charge: 13.00 Level of theory: RSCAN   |                
   | Atomic Solver: Koelling-Harmon                           |                
   |                                                          |                
   |               Reference Electronic Structure             |                
   |         Orbital         Occupation         Energy        |                
   |            4d             10.000           -0.711        |                
   |            5s              2.000           -0.313        |                
   |            5p              1.000           -0.095        |                
   |                                                          |                
   |                 Pseudopotential Definition               |                
   |        Beta     l      e      Rc     scheme   norm       |                
   |          1      0   -0.313   2.501     qc      0         |                
   |          2      0    0.250   2.501     qc      0         |                
   |          3      1   -0.095   2.501     qc      0         |                
   |          4      1    0.250   2.501     qc      0         |                
   |          5      2   -0.711   2.207     qc      0         |                
   |          6      2    0.250   2.207     qc      0         |                
   |         loc     3    0.000   2.501     pn      0         |                
   |                                                          |                
   | Augmentation charge Rinner = 1.504                       |                
   | Partial core correction Rc = 1.504                       |                
   ------------------------------------------------------------                
   | "3|2.5|2.5|1.5|7|8|9|50:51:42U2.2U2.2"                   |                
   ------------------------------------------------------------                
   |      Author: Chris J. Pickard, Cambridge University      |                
   ============================================================                
 Warning: otfg_output_psp cannot write out meta-GGA pseudopotentials presently.

 Pseudo atomic calculation performed for P 3s2 3p3

 Converged in 23 iterations to a total energy of -208.0292 eV

 Pseudo atomic calculation performed for In 4d10 5s2 5p1

 Converged in 42 iterations to a total energy of -1747.4501 eV
 Calculation parallelised over 108 processes.
 Data is distributed by G-vector(3-way) and k-point(36-way)
 Each process may use up to 16 threads.

 ************************************ Title ************************************
 

 ***************************** General Parameters ******************************
  
 output verbosity                               : normal  (1)
 write checkpoint data to                       : In_Vacancy_Antisite.check
 type of calculation                            : geometry optimization
 stress calculation                             : off
 density difference calculation                 : off
 electron localisation func (ELF) calculation   : off
 Hirshfeld analysis                             : on
 polarisation (Berry phase) analysis            : off
 molecular orbital projected DOS                : off
 deltaSCF calculation                           : off
 unlimited duration calculation
 timing information                             : on
 memory usage estimate                          : on
 write extra output files                       : on
 write final potential to formatted file        : off
 write final density to formatted file          : off
 write BibTeX reference list                    : on
 write OTFG pseudopotential files               : on
 write electrostatic potential file             : on
 write bands file                               : on
 checkpoint writing                             : off
  
 output         length unit                     : A
 output           mass unit                     : amu
 output           time unit                     : ps
 output         charge unit                     : e
 output           spin unit                     : hbar/2
 output         energy unit                     : eV
 output          force unit                     : eV/A
 output       velocity unit                     : A/ps
 output       pressure unit                     : GPa
 output     inv_length unit                     : 1/A
 output      frequency unit                     : cm-1
 output force constant unit                     : eV/A**2
 output         volume unit                     : A**3
 output   IR intensity unit                     : (D/A)**2/amu
 output         dipole unit                     : D
 output         efield unit                     : eV/A/e
 output        entropy unit                     : J/mol/K
 output    efield chi2 unit                     : pm/V
  
 wavefunctions paging                           : none
 random number generator seed                   :  132937712
 data distribution                              : optimal for this architecture
 optimization strategy                          : balance speed and memory

 *********************** Exchange-Correlation Parameters ***********************
  
 using functional                               : RSCAN
 relativistic treatment                         : Koelling-Harmon
 DFT+D: Semi-empirical dispersion correction    : off

 ************************* Pseudopotential Parameters **************************
  
 pseudopotential representation                 : reciprocal space
 <beta|phi> representation                      : reciprocal space
 spin-orbit coupling                            : off

 **************************** Basis Set Parameters *****************************
  
 plane wave basis set cut-off                   :   900.0000   eV
 size of standard grid                          :     2.0000
 size of   fine   gmax                          :    30.7390   1/A
 finite basis set correction                    : none

 **************************** Electronic Parameters ****************************
  
 number of  electrons                           :  563.0    
 net charge of system                           :  0.000    
 net spin   of system                           :  1.000    
 number of  up  spins                           :  282.0    
 number of down spins                           :  281.0    
 treating system as spin-polarized
 number of bands                                :        338

 ********************* Electronic Minimization Parameters **********************
  
 Method: Treating system as metallic with density mixing treatment of electrons,
         and number of  SD  steps               :          1
         and number of  CG  steps               :          4
  
 total energy / atom convergence tol.           : 0.1000E-07   eV
 eigen-energy convergence tolerance             : 0.2234E-08   eV
 max force / atom convergence tol.              : ignored
 convergence tolerance window                   :          3   cycles
 max. number of SCF cycles                      :         50
 number of fixed-spin iterations                :         10
 smearing scheme                                : Gaussian
 smearing width                                 : 0.2000       eV
 Fermi energy convergence tolerance             : 0.2721E-13   eV
 periodic dipole correction                     : NONE

 ************************** Density Mixing Parameters **************************
  
 density-mixing scheme                          : Pulay
 max. length of mixing history                  :         15
 charge density mixing amplitude                : 0.5000    
   spin density mixing amplitude                :  2.000    
 cut-off energy for mixing                      :  900.0       eV

 *********************** Population Analysis Parameters ************************
  
 Population analysis with cutoff                :  3.000       A
 Population analysis output                     : summary and pdos components

 ********************** Geometry Optimization Parameters ***********************
  
 optimization method                            : LBFGS
 max. no. of LBFGS updates                      : unbounded
 preconditioned LBFGS is activated
 preconditioner type                            : EXP
     stabilization constant                     :     0.1000
     parameter A                                :     3.0000
     nearest neighbor distance                  : automatic
     cut-off distance                           : automatic
     parameter mu                               : automatic
 variable cell method                           : fixed basis quality
 max. number of steps                           :         30
 estimated bulk modulus                         :  500.0       GPa
 estimated <frequency>                          :  1668.       cm-1
 geom line minimiser                            : on
 with line minimiser tolerance                  :     0.4000
  with spin fully able to relax for all steps
 total energy convergence tolerance             : 0.2000E-04   eV/atom
        max ionic |force| tolerance             : 0.1000E-02   eV/A
 max ionic |displacement| tolerance             : 0.1000E-02   A
   max |stress component| tolerance             : 0.1000       GPa
 convergence tolerance window                   :          2   steps
 backup results every                           :          5   steps
 write geom trajectory file                     : on

 *******************************************************************************
  

                           -------------------------------
                                      Unit Cell
                           -------------------------------
        Real Lattice(A)                      Reciprocal Lattice(1/A)
    11.8016820    -0.0000080    -0.0000080        0.532397442   0.000000361   0.000000361
    -0.0000080    11.8016820    -0.0000080        0.000000361   0.532397442   0.000000361
    -0.0000080    -0.0000080    11.8016820        0.000000361   0.000000361   0.532397442

                       Lattice parameters(A)       Cell Angles
                    a =     11.801682          alpha =   90.000078
                    b =     11.801682          beta  =   90.000078
                    c =     11.801682          gamma =   90.000078

                       Current cell volume =          1643.734705       A**3
                                   density =             2.768402   AMU/A**3
                                           =             4.597040     g/cm^3

                           -------------------------------
                                     Cell Contents
                           -------------------------------
                         Total number of ions in cell =   63
                      Total number of species in cell =    2
                        Max number of any one species =   32

            xxxxxxxxxxxxxxxxxxxxxxxxxxxxxxxxxxxxxxxxxxxxxxxxxxxxxxxxxxxx
            x  Element    Atom        Fractional coordinates of atoms  x
            x            Number           u          v          w      x
            x----------------------------------------------------------x
            x  P            1         0.124419   0.124419   0.372337   x 
            x  P            2         0.372337   0.124419   0.124419   x 
            x  P            3         0.124419   0.372337   0.124419   x 
            x  P            4         0.502124   0.502124   0.502124   x 
            x  P            5         0.123671   0.123671   0.871589   x 
            x  P            6         0.373098   0.132511   0.616286   x 
            x  P            7         0.132511   0.373098   0.616286   x 
            x  P            8         0.375483   0.375483   0.875093   x 
            x  P            9         0.132511   0.616286   0.373098   x 
            x  P           10         0.373098   0.616286   0.132511   x 
            x  P           11         0.123671   0.871589   0.123671   x 
            x  P           12         0.375483   0.875093   0.375483   x 
            x  P           13         0.129473   0.621967   0.872326   x 
            x  P           14         0.398290   0.616637   0.616637   x 
            x  P           15         0.129473   0.872326   0.621967   x 
            x  P           16         0.374449   0.872622   0.872622   x 
            x  P           17         0.616286   0.132511   0.373098   x 
            x  P           18         0.871589   0.123671   0.123671   x 
            x  P           19         0.616286   0.373098   0.132511   x 
            x  P           20         0.875093   0.375483   0.375483   x 
            x  P           21         0.621967   0.129473   0.872326   x 
            x  P           22         0.872326   0.129473   0.621967   x 
            x  P           23         0.616637   0.398290   0.616637   x 
            x  P           24         0.872622   0.374448   0.872622   x 
            x  P           25         0.616637   0.616637   0.398290   x 
            x  P           26         0.872326   0.621967   0.129473   x 
            x  P           27         0.621967   0.872326   0.129473   x 
            x  P           28         0.872622   0.872622   0.374448   x 
            x  P           29         0.627170   0.627170   0.879747   x 
            x  P           30         0.879747   0.627170   0.627170   x 
            x  P           31         0.627170   0.879747   0.627170   x 
            x  P           32         0.874877   0.874877   0.874877   x 
            x  In           1        -0.000557  -0.000557  -0.000557   x 
            x  In           2         0.247984  -0.002358   0.247984   x 
            x  In           3        -0.002358   0.247984   0.247984   x 
            x  In           4         0.247984   0.247984  -0.002358   x 
            x  In           5        -0.000876  -0.000876   0.500283   x 
            x  In           6         0.251915   0.002415   0.745273   x 
            x  In           7         0.002415   0.251915   0.745273   x 
            x  In           8         0.262878   0.262878   0.472333   x 
            x  In           9        -0.000876   0.500283  -0.000876   x 
            x  In          10         0.262878   0.472333   0.262878   x 
            x  In          11         0.002415   0.745273   0.251915   x 
            x  In          12         0.251915   0.745273   0.002415   x 
            x  In          13         0.001585   0.500356   0.500356   x 
            x  In          14         0.256714   0.498416   0.742346   x 
            x  In          15         0.005322   0.751935   0.751935   x 
            x  In          16         0.256714   0.742346   0.498416   x 
            x  In          17         0.500283  -0.000876  -0.000876   x 
            x  In          18         0.745273   0.002415   0.251915   x 
            x  In          19         0.472333   0.262878   0.262878   x 
            x  In          20         0.745273   0.251915   0.002415   x 
            x  In          21         0.500356   0.001585   0.500356   x 
            x  In          22         0.751935   0.005322   0.751935   x 
            x  In          23         0.498416   0.256714   0.742346   x 
            x  In          24         0.742346   0.256714   0.498416   x 
            x  In          25         0.500356   0.500356   0.001585   x 
            x  In          26         0.742346   0.498416   0.256714   x 
            x  In          27         0.498416   0.742346   0.256714   x 
            x  In          28         0.751935   0.751935   0.005322   x 
            x  In          29         0.751211   0.507431   0.751211   x 
            x  In          30         0.507431   0.751211   0.751211   x 
            x  In          31         0.751211   0.751211   0.507431   x 
            xxxxxxxxxxxxxxxxxxxxxxxxxxxxxxxxxxxxxxxxxxxxxxxxxxxxxxxxxxxx


                         No user defined ionic velocities

                           -------------------------------
                                   Details of Species
                           -------------------------------

                               Mass of species in AMU
                                    P   30.9737600
                                    In  114.8180000

                          Electric Quadrupole Moment (Barn)
                                    P    1.0000000 No Isotope Defined
                                    In    0.7700000 Isotope115

                          Files used for pseudopotentials:
                                    P 3|1.8|4|4|5|30:31:32
                                    In 3|2.5|2.5|1.5|7|8|9|50:51:42U2.2U2.2

                           -------------------------------
                              k-Points For BZ Sampling
                           -------------------------------
                       MP grid size for SCF calculation is  4  4  4
                            with an offset of   0.125  0.125  0.125
                       Number of kpoints used =            36

                           -------------------------------
                               Symmetry and Constraints
                           -------------------------------

                      Maximum deviation from symmetry =  0.00000         ANG

                      Number of symmetry operations   =           1
                      Number of ionic constraints     =           3
                      Point group of crystal =     1: C1, 1, 1
                      Space group of crystal =   160: R3m, R 3 -2"

             Set iprint > 1 for details on symmetry rotations/translations

                         Centre of mass is constrained
             Set iprint > 1 for details of linear ionic constraints

                         Number of cell constraints= 6
                         Cell constraints are:  0 0 0 0 0 0

                         External pressure/stress (GPa)
                          0.00000   0.00000   0.00000
                                    0.00000   0.00000
                                              0.00000
 
+---------------- MEMORY AND SCRATCH DISK ESTIMATES PER PROCESS --------------+
|                                                     Memory          Disk    |
| Baseline code, static data and system overhead      368.0 MB         0.0 MB |
| BLAS internal memory storage                          0.0 MB         0.0 MB |
| Model and support data                             4296.9 MB         0.0 MB |
| Electronic energy minimisation requirements        1289.2 MB         0.0 MB |
| Force calculation requirements                      127.4 MB         0.0 MB |
|                                               ----------------------------- |
| Approx. total storage required per process         5954.1 MB         0.0 MB |
|                                                                             |
| Requirements will fluctuate during execution and may exceed these estimates |
+-----------------------------------------------------------------------------+
Calculating approximate eigenstates for fixed initial Hamiltonian
Cut-off for approx. calculation is   89.988 eV
Improving approx. states at cut-off of  450.000 eV
Resetting cut-off to  900.000 eV
Calculating total energy with cut-off of  900.000 eV.
------------------------------------------------------------------------ <-- SCF
SCF loop      Energy           Fermi           Energy gain       Timer   <-- SCF
                               energy          per atom          (sec)   <-- SCF
------------------------------------------------------------------------ <-- SCF
Initial  -6.12888209E+004  0.00000000E+000                       430.58  <-- SCF
      1  -6.10551484E+004  3.07868025E+000  -3.70908725E+000     873.13  <-- SCF
      2  -6.10555460E+004  3.07512392E+000   6.30958580E-003    1181.62  <-- SCF
      3  -6.11189416E+004  3.20818639E+000   1.00627934E+000    1528.77  <-- SCF
      4  -6.11303871E+004  3.26367951E+000   1.81675961E-001    2008.71  <-- SCF
      5  -6.11360089E+004  3.38989859E+000   8.92340567E-002    2352.43  <-- SCF
      6  -6.11250567E+004  3.58374848E+000  -1.73843649E-001    2690.65  <-- SCF
      7  -6.11238196E+004  3.62555253E+000  -1.96367308E-002    3030.58  <-- SCF
      8  -6.11238941E+004  3.65209160E+000   1.18248782E-003    3388.57  <-- SCF
      9  -6.11246561E+004  3.66381166E+000   1.20955051E-002    3741.99  <-- SCF
     10  -6.11250210E+004  3.90269892E+000   5.79164504E-003    4090.08  <-- SCF
     11  -6.11250366E+004  3.90754052E+000   2.47258353E-004    4447.22  <-- SCF
     12  -6.11250447E+004  3.90688890E+000   1.29574917E-004    4802.15  <-- SCF
     13  -6.11250480E+004  3.90601025E+000   5.23575057E-005    5159.16  <-- SCF
     14  -6.11250504E+004  3.90499933E+000   3.68032704E-005    5517.29  <-- SCF
     15  -6.11250511E+004  3.90469545E+000   1.18728180E-005    5882.96  <-- SCF
     16  -6.11250522E+004  3.90382124E+000   1.78741035E-005    6251.09  <-- SCF
     17  -6.11250525E+004  3.90376076E+000   4.58154312E-006    6621.65  <-- SCF
     18  -6.11250527E+004  3.90414333E+000   2.79509287E-006    6967.24  <-- SCF
     19  -6.11250527E+004  3.90424770E+000   2.53458388E-007    7296.02  <-- SCF
     20  -6.11250527E+004  3.90428242E+000   5.30726119E-008    7561.97  <-- SCF
     21  -6.11250527E+004  3.90430381E+000   2.71955815E-008    7818.58  <-- SCF
     22  -6.11250527E+004  3.90431138E+000   2.52121570E-009    8059.07  <-- SCF
     23  -6.11250527E+004  3.90431272E+000   1.72670670E-009    8307.97  <-- SCF
------------------------------------------------------------------------ <-- SCF
 
Integrated Spin Density     =   -0.133631E-03 hbar/2
Integrated |Spin Density|   =    0.710556E-03 hbar/2
 
Final energy, E             =  -61124.91973909     eV
Final free energy (E-TS)    =  -61125.05272320     eV
(energies not corrected for finite basis set)
 
NB est. 0K energy (E-0.5TS)      =  -61124.98623115     eV
 
 
+---------------- MEMORY AND SCRATCH DISK ESTIMATES PER PROCESS --------------+
|                                                     Memory          Disk    |
| Model and support data                             2738.4 MB         0.0 MB |
| Electronic energy minimisation requirements        1289.2 MB         0.0 MB |
| Geometry minimisation requirements                 1658.1 MB         0.0 MB |
|                                               ----------------------------- |
| Approx. total storage required per process         5685.7 MB         0.0 MB |
|                                                                             |
| Requirements will fluctuate during execution and may exceed these estimates |
+-----------------------------------------------------------------------------+
 

 ************************************** Forces **************************************
 *                                                                                  *
 *                           Cartesian components (eV/A)                            *
 * -------------------------------------------------------------------------------- *
 *                         x                    y                    z              *
 *                                                                                  *
 * P               1     -0.07787             -0.07787              0.06741         *
 * P               2      0.06741             -0.07786             -0.07786         *
 * P               3     -0.07786              0.06741             -0.07786         *
 * P               4     -0.03164             -0.03165             -0.03165         *
 * P               5     -0.00315             -0.00315             -0.04085         *
 * P               6      0.01303              0.01332              0.02619         *
 * P               7      0.01333              0.01303              0.02619         *
 * P               8      0.02466              0.02466             -0.03850         *
 * P               9      0.01332              0.02619              0.01303         *
 * P              10      0.01303              0.02619              0.01332         *
 * P              11     -0.00315             -0.04085             -0.00316         *
 * P              12      0.02466             -0.03850              0.02466         *
 * P              13      0.05721              0.01746             -0.04408         *
 * P              14     -0.04671              0.02967              0.02967         *
 * P              15      0.05721             -0.04409              0.01745         *
 * P              16      0.01139              0.00569              0.00569         *
 * P              17      0.02619              0.01332              0.01303         *
 * P              18     -0.04085             -0.00315             -0.00315         *
 * P              19      0.02619              0.01303              0.01332         *
 * P              20     -0.03850              0.02466              0.02466         *
 * P              21      0.01745              0.05721             -0.04408         *
 * P              22     -0.04408              0.05721              0.01746         *
 * P              23      0.02968             -0.04670              0.02967         *
 * P              24      0.00569              0.01139              0.00569         *
 * P              25      0.02968              0.02968             -0.04670         *
 * P              26     -0.04409              0.01746              0.05720         *
 * P              27      0.01745             -0.04408              0.05721         *
 * P              28      0.00570              0.00569              0.01139         *
 * P              29     -0.00716             -0.00715              0.03434         *
 * P              30      0.03434             -0.00715             -0.00715         *
 * P              31     -0.00716              0.03434             -0.00715         *
 * P              32     -0.00129             -0.00128             -0.00128         *
 * In              1      0.03198              0.03198              0.03197         *
 * In              2     -0.01832              0.01676             -0.01832         *
 * In              3      0.01676             -0.01832             -0.01832         *
 * In              4     -0.01832             -0.01832              0.01676         *
 * In              5      0.05371              0.05371             -0.16868         *
 * In              6      0.04345              0.05185              0.01063         *
 * In              7      0.05185              0.04345              0.01063         *
 * In              8      0.02423              0.02423             -0.02714         *
 * In              9      0.05371             -0.16868              0.05370         *
 * In             10      0.02422             -0.02714              0.02423         *
 * In             11      0.05185              0.01063              0.04346         *
 * In             12      0.04345              0.01063              0.05185         *
 * In             13      0.07144             -0.01255             -0.01255         *
 * In             14     -0.07280             -0.16768              0.06606         *
 * In             15     -0.03919              0.00451              0.00452         *
 * In             16     -0.07280              0.06606             -0.16768         *
 * In             17     -0.16867              0.05371              0.05371         *
 * In             18      0.01063              0.05185              0.04345         *
 * In             19     -0.02714              0.02422              0.02423         *
 * In             20      0.01063              0.04345              0.05185         *
 * In             21     -0.01255              0.07144             -0.01255         *
 * In             22      0.00452             -0.03919              0.00451         *
 * In             23     -0.16767             -0.07280              0.06606         *
 * In             24      0.06606             -0.07280             -0.16768         *
 * In             25     -0.01255             -0.01255              0.07144         *
 * In             26      0.06606             -0.16768             -0.07280         *
 * In             27     -0.16767              0.06606             -0.07280         *
 * In             28      0.00452              0.00451             -0.03919         *
 * In             29      0.06278             -0.04106              0.06278         *
 * In             30     -0.04105              0.06278              0.06278         *
 * In             31      0.06278              0.06277             -0.04106         *
 *                                                                                  *
 ************************************************************************************
 EXP precond LBFGS => estimated nearest neighbor distance :  2.595       A
 EXP precond LBFGS => estimated cutoff distance :  5.190       A

 ************************************** Forces **************************************
 *                                                                                  *
 *                           Cartesian components (eV/A)                            *
 * -------------------------------------------------------------------------------- *
 *                         x                    y                    z              *
 *                                                                                  *
 * P               1     -0.07787             -0.07787              0.06741         *
 * P               2      0.06741             -0.07786             -0.07786         *
 * P               3     -0.07786              0.06741             -0.07786         *
 * P               4     -0.03164             -0.03165             -0.03165         *
 * P               5     -0.00315             -0.00315             -0.04085         *
 * P               6      0.01303              0.01332              0.02619         *
 * P               7      0.01333              0.01303              0.02619         *
 * P               8      0.02466              0.02466             -0.03850         *
 * P               9      0.01332              0.02619              0.01303         *
 * P              10      0.01303              0.02619              0.01332         *
 * P              11     -0.00315             -0.04085             -0.00316         *
 * P              12      0.02466             -0.03850              0.02466         *
 * P              13      0.05721              0.01746             -0.04408         *
 * P              14     -0.04671              0.02967              0.02967         *
 * P              15      0.05721             -0.04409              0.01745         *
 * P              16      0.01139              0.00569              0.00569         *
 * P              17      0.02619              0.01332              0.01303         *
 * P              18     -0.04085             -0.00315             -0.00315         *
 * P              19      0.02619              0.01303              0.01332         *
 * P              20     -0.03850              0.02466              0.02466         *
 * P              21      0.01745              0.05721             -0.04408         *
 * P              22     -0.04408              0.05721              0.01746         *
 * P              23      0.02968             -0.04670              0.02967         *
 * P              24      0.00569              0.01139              0.00569         *
 * P              25      0.02968              0.02968             -0.04670         *
 * P              26     -0.04409              0.01746              0.05720         *
 * P              27      0.01745             -0.04408              0.05721         *
 * P              28      0.00570              0.00569              0.01139         *
 * P              29     -0.00716             -0.00715              0.03434         *
 * P              30      0.03434             -0.00715             -0.00715         *
 * P              31     -0.00716              0.03434             -0.00715         *
 * P              32     -0.00129             -0.00128             -0.00128         *
 * In              1      0.03198              0.03198              0.03197         *
 * In              2     -0.01832              0.01676             -0.01832         *
 * In              3      0.01676             -0.01832             -0.01832         *
 * In              4     -0.01832             -0.01832              0.01676         *
 * In              5      0.05371              0.05371             -0.16868         *
 * In              6      0.04345              0.05185              0.01063         *
 * In              7      0.05185              0.04345              0.01063         *
 * In              8      0.02423              0.02423             -0.02714         *
 * In              9      0.05371             -0.16868              0.05370         *
 * In             10      0.02422             -0.02714              0.02423         *
 * In             11      0.05185              0.01063              0.04346         *
 * In             12      0.04345              0.01063              0.05185         *
 * In             13      0.07144             -0.01255             -0.01255         *
 * In             14     -0.07280             -0.16768              0.06606         *
 * In             15     -0.03919              0.00451              0.00452         *
 * In             16     -0.07280              0.06606             -0.16768         *
 * In             17     -0.16867              0.05371              0.05371         *
 * In             18      0.01063              0.05185              0.04345         *
 * In             19     -0.02714              0.02422              0.02423         *
 * In             20      0.01063              0.04345              0.05185         *
 * In             21     -0.01255              0.07144             -0.01255         *
 * In             22      0.00452             -0.03919              0.00451         *
 * In             23     -0.16767             -0.07280              0.06606         *
 * In             24      0.06606             -0.07280             -0.16768         *
 * In             25     -0.01255             -0.01255              0.07144         *
 * In             26      0.06606             -0.16768             -0.07280         *
 * In             27     -0.16767              0.06606             -0.07280         *
 * In             28      0.00452              0.00451             -0.03919         *
 * In             29      0.06278             -0.04106              0.06278         *
 * In             30     -0.04105              0.06278              0.06278         *
 * In             31      0.06278              0.06277             -0.04106         *
 *                                                                                  *
 ************************************************************************************
 doing test perturbation to get energy scale for EXP preconditioner

                           -------------------------------
                                     Cell Contents
                           -------------------------------

            xxxxxxxxxxxxxxxxxxxxxxxxxxxxxxxxxxxxxxxxxxxxxxxxxxxxxxxxxxxxxxxxx
            x  Element         Atom        Fractional coordinates of atoms  x
            x                 Number           u          v          w      x
            x---------------------------------------------------------------x
            x  P                 1         0.124693   0.124693   0.373139   x
            x  P                 2         0.373139   0.124693   0.124693   x
            x  P                 3         0.124693   0.373139   0.124693   x
            x  P                 4         0.503184   0.503184   0.503184   x
            x  P                 5         0.123942   0.123942   0.873275   x
            x  P                 6         0.373901   0.132802   0.617560   x
            x  P                 7         0.132802   0.373901   0.617560   x
            x  P                 8         0.376291   0.376291   0.876783   x
            x  P                 9         0.132802   0.617560   0.373901   x
            x  P                10         0.373901   0.617560   0.132802   x
            x  P                11         0.123942   0.873275   0.123942   x
            x  P                12         0.376291   0.876783   0.376291   x
            x  P                13         0.129757   0.623250   0.874012   x
            x  P                14         0.399145   0.617911   0.617911   x
            x  P                15         0.129757   0.874012   0.623250   x
            x  P                16         0.375254   0.874308   0.874308   x
            x  P                17         0.617560   0.132802   0.373901   x
            x  P                18         0.873275   0.123942   0.123942   x
            x  P                19         0.617560   0.373901   0.132802   x
            x  P                20         0.876783   0.376291   0.376291   x
            x  P                21         0.623250   0.129757   0.874012   x
            x  P                22         0.874012   0.129757   0.623250   x
            x  P                23         0.617911   0.399145   0.617911   x
            x  P                24         0.874308   0.375254   0.874308   x
            x  P                25         0.617911   0.617911   0.399145   x
            x  P                26         0.874012   0.623250   0.129757   x
            x  P                27         0.623250   0.874012   0.129757   x
            x  P                28         0.874308   0.874308   0.375254   x
            x  P                29         0.628463   0.628463   0.881444   x
            x  P                30         0.881444   0.628463   0.628463   x
            x  P                31         0.628463   0.881444   0.628463   x
            x  P                32         0.876567   0.876567   0.876567   x
            x  In                1         1.001295   1.001295   1.001295   x
            x  In                2         0.248525   0.999492   0.248525   x
            x  In                3         0.999492   0.248525   0.248525   x
            x  In                4         0.248525   0.248525   0.999492   x
            x  In                5         1.000976   1.000976   0.501340   x
            x  In                6         0.252464   0.002421   0.746767   x
            x  In                7         0.002421   0.252464   0.746767   x
            x  In                8         0.263450   0.263450   0.473335   x
            x  In                9         1.000976   0.501340   1.000976   x
            x  In               10         0.263450   0.473335   0.263450   x
            x  In               11         0.002421   0.746767   0.252464   x
            x  In               12         0.252464   0.746767   0.002421   x
            x  In               13         0.001589   0.501412   0.501412   x
            x  In               14         0.257273   0.499469   0.743835   x
            x  In               15         0.005334   0.753439   0.753439   x
            x  In               16         0.257273   0.743835   0.499469   x
            x  In               17         0.501340   1.000976   1.000976   x
            x  In               18         0.746767   0.002421   0.252464   x
            x  In               19         0.473335   0.263450   0.263450   x
            x  In               20         0.746767   0.252464   0.002421   x
            x  In               21         0.501412   0.001589   0.501412   x
            x  In               22         0.753439   0.005334   0.753439   x
            x  In               23         0.499469   0.257273   0.743835   x
            x  In               24         0.743835   0.257273   0.499469   x
            x  In               25         0.501412   0.501412   0.001589   x
            x  In               26         0.743835   0.499469   0.257273   x
            x  In               27         0.499469   0.743835   0.257273   x
            x  In               28         0.753439   0.753439   0.005334   x
            x  In               29         0.752714   0.508501   0.752714   x
            x  In               30         0.508501   0.752714   0.752714   x
            x  In               31         0.752714   0.752714   0.508501   x
            xxxxxxxxxxxxxxxxxxxxxxxxxxxxxxxxxxxxxxxxxxxxxxxxxxxxxxxxxxxxxxxxx


------------------------------------------------------------------------ <-- SCF
SCF loop      Energy           Fermi           Energy gain       Timer   <-- SCF
                               energy          per atom          (sec)   <-- SCF
------------------------------------------------------------------------ <-- SCF
Initial  -6.11222909E+004  0.00000000E+000                      8796.26  <-- SCF
      1  -6.11246963E+004  3.90327469E+000   3.81801900E-002    9196.24  <-- SCF
      2  -6.11250213E+004  3.90321768E+000   5.15913642E-003    9593.07  <-- SCF
      3  -6.11250259E+004  3.90344567E+000   7.36356081E-005    9935.73  <-- SCF
      4  -6.11250284E+004  3.90353206E+000   3.83321363E-005   10314.71  <-- SCF
      5  -6.11250287E+004  3.90354855E+000   5.46325385E-006   10719.07  <-- SCF
      6  -6.11250288E+004  3.90356466E+000   2.07927405E-006   11072.11  <-- SCF
      7  -6.11250289E+004  3.90358682E+000   3.52154280E-007   11406.56  <-- SCF
      8  -6.11250289E+004  3.90359499E+000   4.17632821E-008   11656.61  <-- SCF
      9  -6.11250289E+004  3.90360702E+000   1.65674277E-008   11922.60  <-- SCF
     10  -6.11250289E+004  3.90361255E+000   2.47878951E-009   12174.14  <-- SCF
     11  -6.11250289E+004  3.90361417E+000   3.77514536E-010   12412.98  <-- SCF
------------------------------------------------------------------------ <-- SCF
 
Integrated Spin Density     =   -0.181767E-03 hbar/2
Integrated |Spin Density|   =    0.411995E-03 hbar/2
 
Final energy, E             =  -61124.89516651     eV
Final free energy (E-TS)    =  -61125.02885460     eV
(energies not corrected for finite basis set)
 
NB est. 0K energy (E-0.5TS)      =  -61124.96201055     eV
 

 ************************************** Forces **************************************
 *                                                                                  *
 *                           Cartesian components (eV/A)                            *
 * -------------------------------------------------------------------------------- *
 *                         x                    y                    z              *
 *                                                                                  *
 * P               1      0.02611              0.02611              0.05667         *
 * P               2      0.05667              0.02611              0.02611         *
 * P               3      0.02611              0.05667              0.02611         *
 * P               4     -0.01691             -0.01691             -0.01691         *
 * P               5      0.09695              0.09695             -0.13413         *
 * P               6      0.02339              0.02486              0.03308         *
 * P               7      0.02486              0.02339              0.03308         *
 * P               8     -0.00462             -0.00462             -0.09992         *
 * P               9      0.02486              0.03308              0.02339         *
 * P              10      0.02339              0.03308              0.02486         *
 * P              11      0.09695             -0.13413              0.09694         *
 * P              12     -0.00462             -0.09992             -0.00462         *
 * P              13      0.07721              0.01182             -0.13885         *
 * P              14     -0.04223              0.03264              0.03264         *
 * P              15      0.07721             -0.13886              0.01182         *
 * P              16      0.08261             -0.02171             -0.02171         *
 * P              17      0.03308              0.02486              0.02340         *
 * P              18     -0.13413              0.09695              0.09695         *
 * P              19      0.03308              0.02340              0.02486         *
 * P              20     -0.09992             -0.00462             -0.00462         *
 * P              21      0.01181              0.07721             -0.13884         *
 * P              22     -0.13885              0.07721              0.01182         *
 * P              23      0.03264             -0.04222              0.03264         *
 * P              24     -0.02171              0.08261             -0.02171         *
 * P              25      0.03265              0.03265             -0.04222         *
 * P              26     -0.13886              0.01182              0.07721         *
 * P              27      0.01181             -0.13885              0.07721         *
 * P              28     -0.02171             -0.02171              0.08261         *
 * P              29     -0.01168             -0.01168             -0.08143         *
 * P              30     -0.08142             -0.01168             -0.01168         *
 * P              31     -0.01169             -0.08142             -0.01168         *
 * P              32      0.00093              0.00094              0.00094         *
 * In              1     -0.03199             -0.03199             -0.03199         *
 * In              2     -0.01595             -0.09272             -0.01595         *
 * In              3     -0.09272             -0.01595             -0.01595         *
 * In              4     -0.01595             -0.01595             -0.09272         *
 * In              5     -0.02210             -0.02210             -0.15861         *
 * In              6      0.05065              0.15010              0.01174         *
 * In              7      0.15009              0.05065              0.01174         *
 * In              8      0.02104              0.02104              0.00276         *
 * In              9     -0.02210             -0.15860             -0.02210         *
 * In             10      0.02103              0.00275              0.02103         *
 * In             11      0.15009              0.01174              0.05065         *
 * In             12      0.05065              0.01174              0.15009         *
 * In             13      0.18267             -0.01978             -0.01978         *
 * In             14     -0.07620             -0.18514              0.05212         *
 * In             15      0.04901             -0.00214             -0.00213         *
 * In             16     -0.07620              0.05212             -0.18514         *
 * In             17     -0.15860             -0.02210             -0.02210         *
 * In             18      0.01174              0.15009              0.05065         *
 * In             19      0.00275              0.02103              0.02103         *
 * In             20      0.01174              0.05065              0.15009         *
 * In             21     -0.01978              0.18267             -0.01978         *
 * In             22     -0.00213              0.04901             -0.00214         *
 * In             23     -0.18514             -0.07620              0.05212         *
 * In             24      0.05212             -0.07620             -0.18514         *
 * In             25     -0.01978             -0.01978              0.18267         *
 * In             26      0.05212             -0.18514             -0.07620         *
 * In             27     -0.18514              0.05212             -0.07620         *
 * In             28     -0.00213             -0.00214              0.04901         *
 * In             29      0.05018             -0.04417              0.05018         *
 * In             30     -0.04416              0.05018              0.05018         *
 * In             31      0.05018              0.05018             -0.04417         *
 *                                                                                  *
 ************************************************************************************
 EXP precond LBFGS => estimated parameter mu :  1.148       eV/A**2
 LBFGS: finished iteration     0 with enthalpy= -6.11250527E+004 eV
  
 +-----------+-----------------+-----------------+------------+-----+ <-- LBFGS
 | Parameter |      value      |    tolerance    |    units   | OK? | <-- LBFGS
 +-----------+-----------------+-----------------+------------+-----+ <-- LBFGS
 |  dE/ion   |   0.000000E+000 |   2.000000E-005 |         eV | No  | <-- LBFGS
 |  |F|max   |   2.068814E-001 |   1.000000E-003 |       eV/A | No  | <-- LBFGS
 |  |dR|max  |   3.233591E-015 |   1.000000E-003 |          A | No  | <-- LBFGS
 +-----------+-----------------+-----------------+------------+-----+ <-- LBFGS
  

================================================================================
 Starting LBFGS iteration          1 ...
================================================================================
  
 +------------+-------------+-------------+-----------------+ <-- min LBFGS
 |    Step    |   lambda    |   F.delta'  |    enthalpy     | <-- min LBFGS
 +------------+-------------+-------------+-----------------+ <-- min LBFGS
 |  previous  |    0.000000 |    0.294008 |   -61125.052723 | <-- min LBFGS
 +------------+-------------+-------------+-----------------+ <-- min LBFGS
  

--------------------------------------------------------------------------------
 LBFGS: starting iteration         1 with trial guess (lambda=  1.000000)
--------------------------------------------------------------------------------

                           -------------------------------
                                     Cell Contents
                           -------------------------------

            xxxxxxxxxxxxxxxxxxxxxxxxxxxxxxxxxxxxxxxxxxxxxxxxxxxxxxxxxxxxxxxxx
            x  Element         Atom        Fractional coordinates of atoms  x
            x                 Number           u          v          w      x
            x---------------------------------------------------------------x
            x  P                 1         0.123705   0.123705   0.372551   x
            x  P                 2         0.372551   0.123705   0.123705   x
            x  P                 3         0.123705   0.372551   0.123705   x
            x  P                 4         0.501670   0.501670   0.501670   x
            x  P                 5         0.123800   0.123800   0.871253   x
            x  P                 6         0.372960   0.132844   0.616591   x
            x  P                 7         0.132844   0.372960   0.616591   x
            x  P                 8         0.375241   0.375241   0.875157   x
            x  P                 9         0.132844   0.616591   0.372960   x
            x  P                10         0.372960   0.616591   0.132844   x
            x  P                11         0.123800   0.871253   0.123800   x
            x  P                12         0.375241   0.875157   0.375241   x
            x  P                13         0.130185   0.621596   0.872238   x
            x  P                14         0.397451   0.616829   0.616829   x
            x  P                15         0.130185   0.872238   0.621596   x
            x  P                16         0.374249   0.873062   0.873062   x
            x  P                17         0.616591   0.132844   0.372960   x
            x  P                18         0.871253   0.123800   0.123800   x
            x  P                19         0.616591   0.372960   0.132844   x
            x  P                20         0.875157   0.375241   0.375241   x
            x  P                21         0.621596   0.130185   0.872238   x
            x  P                22         0.872238   0.130185   0.621596   x
            x  P                23         0.616829   0.397451   0.616829   x
            x  P                24         0.873062   0.374249   0.873062   x
            x  P                25         0.616829   0.616829   0.397451   x
            x  P                26         0.872238   0.621596   0.130185   x
            x  P                27         0.621596   0.872238   0.130185   x
            x  P                28         0.873062   0.873062   0.374249   x
            x  P                29         0.627046   0.627046   0.880629   x
            x  P                30         0.880629   0.627046   0.627046   x
            x  P                31         0.627046   0.880629   0.627046   x
            x  P                32         0.874974   0.874974   0.874974   x
            x  In                1        -0.000176  -0.000176  -0.000176   x
            x  In                2         0.247633  -0.002314   0.247633   x
            x  In                3        -0.002314   0.247633   0.247633   x
            x  In                4         0.247633   0.247633  -0.002314   x
            x  In                5        -0.000164  -0.000164   0.498264   x
            x  In                6         0.252369   0.003187   0.745363   x
            x  In                7         0.003187   0.252369   0.745363   x
            x  In                8         0.263043   0.263043   0.472076   x
            x  In                9        -0.000164   0.498264  -0.000164   x
            x  In               10         0.263043   0.472076   0.263043   x
            x  In               11         0.003187   0.745363   0.252369   x
            x  In               12         0.252369   0.745363   0.003187   x
            x  In               13         0.002672   0.500106   0.500106   x
            x  In               14         0.255907   0.496494   0.743162   x
            x  In               15         0.005366   0.751903   0.751903   x
            x  In               16         0.255907   0.743162   0.496494   x
            x  In               17         0.498264  -0.000164  -0.000164   x
            x  In               18         0.745363   0.003187   0.252369   x
            x  In               19         0.472076   0.263043   0.263043   x
            x  In               20         0.745363   0.252369   0.003187   x
            x  In               21         0.500106   0.002672   0.500106   x
            x  In               22         0.751903   0.005366   0.751903   x
            x  In               23         0.496494   0.255907   0.743162   x
            x  In               24         0.743162   0.255907   0.496494   x
            x  In               25         0.500106   0.500106   0.002672   x
            x  In               26         0.743162   0.496494   0.255907   x
            x  In               27         0.496494   0.743162   0.255907   x
            x  In               28         0.751903   0.751903   0.005366   x
            x  In               29         0.752091   0.506791   0.752091   x
            x  In               30         0.506792   0.752091   0.752091   x
            x  In               31         0.752091   0.752091   0.506791   x
            xxxxxxxxxxxxxxxxxxxxxxxxxxxxxxxxxxxxxxxxxxxxxxxxxxxxxxxxxxxxxxxxx


------------------------------------------------------------------------ <-- SCF
SCF loop      Energy           Fermi           Energy gain       Timer   <-- SCF
                               energy          per atom          (sec)   <-- SCF
------------------------------------------------------------------------ <-- SCF
Initial  -6.11203722E+004  0.00000000E+000                     12682.33  <-- SCF
      1  -6.11245922E+004  3.88489120E+000   6.69843653E-002   13087.69  <-- SCF
      2  -6.11250664E+004  3.88482418E+000   7.52758068E-003   13485.94  <-- SCF
      3  -6.11250713E+004  3.88124048E+000   7.70203834E-005   13828.29  <-- SCF
      4  -6.11250736E+004  3.87801844E+000   3.57922010E-005   14180.72  <-- SCF
      5  -6.11250739E+004  3.87715186E+000   5.52391741E-006   14588.66  <-- SCF
      6  -6.11250740E+004  3.87650441E+000   1.34590198E-006   14940.39  <-- SCF
      7  -6.11250740E+004  3.87594678E+000   1.63162097E-007   15302.50  <-- SCF
      8  -6.11250740E+004  3.87578946E+000  -1.62066087E-008   15611.58  <-- SCF
      9  -6.11250740E+004  3.87561445E+000  -2.32389463E-008   15925.78  <-- SCF
     10  -6.11250740E+004  3.87557636E+000  -1.60158872E-009   16172.38  <-- SCF
     11  -6.11250740E+004  3.87557316E+000   1.80252388E-009   16411.40  <-- SCF
------------------------------------------------------------------------ <-- SCF
 
Integrated Spin Density     =   -0.732507E-04 hbar/2
Integrated |Spin Density|   =    0.275514E-03 hbar/2
 
Final energy, E             =  -61124.94241519     eV
Final free energy (E-TS)    =  -61125.07399410     eV
(energies not corrected for finite basis set)
 
NB est. 0K energy (E-0.5TS)      =  -61125.00820465     eV
 

 ************************************** Forces **************************************
 *                                                                                  *
 *                           Cartesian components (eV/A)                            *
 * -------------------------------------------------------------------------------- *
 *                         x                    y                    z              *
 *                                                                                  *
 * P               1      0.08025              0.08025             -0.06121         *
 * P               2     -0.06121              0.08025              0.08025         *
 * P               3      0.08025             -0.06121              0.08025         *
 * P               4      0.07096              0.07096              0.07096         *
 * P               5     -0.02082             -0.02082             -0.00012         *
 * P               6     -0.03574             -0.01286             -0.05045         *
 * P               7     -0.01286             -0.03575             -0.05045         *
 * P               8      0.02553              0.02554              0.09264         *
 * P               9     -0.01286             -0.05045             -0.03575         *
 * P              10     -0.03574             -0.05045             -0.01286         *
 * P              11     -0.02082             -0.00012             -0.02082         *
 * P              12      0.02554              0.09264              0.02554         *
 * P              13     -0.02063              0.02697              0.03964         *
 * P              14     -0.04537             -0.00873             -0.00873         *
 * P              15     -0.02063              0.03964              0.02697         *
 * P              16     -0.03600              0.01430              0.01430         *
 * P              17     -0.05045             -0.01286             -0.03574         *
 * P              18     -0.00012             -0.02082             -0.02082         *
 * P              19     -0.05045             -0.03574             -0.01286         *
 * P              20      0.09264              0.02554              0.02554         *
 * P              21      0.02697             -0.02063              0.03963         *
 * P              22      0.03964             -0.02063              0.02697         *
 * P              23     -0.00873             -0.04538             -0.00873         *
 * P              24      0.01430             -0.03600              0.01430         *
 * P              25     -0.00874             -0.00873             -0.04538         *
 * P              26      0.03964              0.02697             -0.02063         *
 * P              27      0.02697              0.03964             -0.02063         *
 * P              28      0.01430              0.01430             -0.03600         *
 * P              29     -0.02211             -0.02211             -0.05579         *
 * P              30     -0.05579             -0.02212             -0.02211         *
 * P              31     -0.02211             -0.05579             -0.02212         *
 * P              32      0.01681              0.01681              0.01681         *
 * In              1     -0.00610             -0.00610             -0.00610         *
 * In              2      0.00565              0.01404              0.00565         *
 * In              3      0.01404              0.00565              0.00565         *
 * In              4      0.00565              0.00565              0.01404         *
 * In              5     -0.03851             -0.03851              0.10335         *
 * In              6     -0.00372             -0.04902             -0.02843         *
 * In              7     -0.04901             -0.00372             -0.02843         *
 * In              8      0.00048              0.00048             -0.03284         *
 * In              9     -0.03851              0.10335             -0.03851         *
 * In             10      0.00048             -0.03284              0.00048         *
 * In             11     -0.04901             -0.02843             -0.00373         *
 * In             12     -0.00372             -0.02843             -0.04901         *
 * In             13     -0.00439              0.00682              0.00682         *
 * In             14      0.01751              0.03190              0.00610         *
 * In             15      0.02425              0.00624              0.00624         *
 * In             16      0.01751              0.00610              0.03190         *
 * In             17      0.10335             -0.03852             -0.03851         *
 * In             18     -0.02843             -0.04901             -0.00373         *
 * In             19     -0.03284              0.00048              0.00048         *
 * In             20     -0.02843             -0.00372             -0.04901         *
 * In             21      0.00682             -0.00439              0.00682         *
 * In             22      0.00624              0.02425              0.00624         *
 * In             23      0.03190              0.01751              0.00610         *
 * In             24      0.00610              0.01751              0.03190         *
 * In             25      0.00682              0.00682             -0.00439         *
 * In             26      0.00610              0.03190              0.01751         *
 * In             27      0.03190              0.00610              0.01751         *
 * In             28      0.00624              0.00624              0.02425         *
 * In             29     -0.02674              0.03253             -0.02674         *
 * In             30      0.03253             -0.02674             -0.02674         *
 * In             31     -0.02674             -0.02674              0.03253         *
 *                                                                                  *
 ************************************************************************************
  
 +------------+-------------+-------------+-----------------+ <-- min LBFGS
 |    Step    |   lambda    |   F.delta'  |    enthalpy     | <-- min LBFGS
 +------------+-------------+-------------+-----------------+ <-- min LBFGS
 |  previous  |    0.000000 |    0.294008 |   -61125.052723 | <-- min LBFGS
 | trial step |    1.000000 |   -0.119145 |   -61125.073994 | <-- min LBFGS
 +------------+-------------+-------------+-----------------+ <-- min LBFGS
  
 LBFGS: finished iteration     1 with enthalpy= -6.11250740E+004 eV
  
 +-----------+-----------------+-----------------+------------+-----+ <-- LBFGS
 | Parameter |      value      |    tolerance    |    units   | OK? | <-- LBFGS
 +-----------+-----------------+-----------------+------------+-----+ <-- LBFGS
 |  dE/ion   |   3.376333E-004 |   2.000000E-005 |         eV | No  | <-- LBFGS
 |  |F|max   |   1.289445E-001 |   1.000000E-003 |       eV/A | No  | <-- LBFGS
 |  |dR|max  |   2.662406E-002 |   1.000000E-003 |          A | No  | <-- LBFGS
 +-----------+-----------------+-----------------+------------+-----+ <-- LBFGS
  

================================================================================
 Starting LBFGS iteration          2 ...
================================================================================
  
 +------------+-------------+-------------+-----------------+ <-- min LBFGS
 |    Step    |   lambda    |   F.delta'  |    enthalpy     | <-- min LBFGS
 +------------+-------------+-------------+-----------------+ <-- min LBFGS
 |  previous  |    0.000000 |    0.195616 |   -61125.073994 | <-- min LBFGS
 +------------+-------------+-------------+-----------------+ <-- min LBFGS
  

--------------------------------------------------------------------------------
 LBFGS: starting iteration         2 with trial guess (lambda=  1.000000)
--------------------------------------------------------------------------------

                           -------------------------------
                                     Cell Contents
                           -------------------------------

            xxxxxxxxxxxxxxxxxxxxxxxxxxxxxxxxxxxxxxxxxxxxxxxxxxxxxxxxxxxxxxxxx
            x  Element         Atom        Fractional coordinates of atoms  x
            x                 Number           u          v          w      x
            x---------------------------------------------------------------x
            x  P                 1         0.124264   0.124264   0.372225   x
            x  P                 2         0.372225   0.124264   0.124264   x
            x  P                 3         0.124264   0.372225   0.124264   x
            x  P                 4         0.502073   0.502073   0.502073   x
            x  P                 5         0.123588   0.123588   0.871224   x
            x  P                 6         0.372703   0.132770   0.616201   x
            x  P                 7         0.132770   0.372703   0.616201   x
            x  P                 8         0.375432   0.375432   0.875939   x
            x  P                 9         0.132770   0.616201   0.372703   x
            x  P                10         0.372703   0.616201   0.132770   x
            x  P                11         0.123588   0.871224   0.123588   x
            x  P                12         0.375432   0.875939   0.375432   x
            x  P                13         0.130072   0.621871   0.872487   x
            x  P                14         0.397123   0.616891   0.616891   x
            x  P                15         0.130072   0.872487   0.621871   x
            x  P                16         0.374016   0.873080   0.873080   x
            x  P                17         0.616201   0.132770   0.372703   x
            x  P                18         0.871224   0.123588   0.123588   x
            x  P                19         0.616201   0.372703   0.132770   x
            x  P                20         0.875939   0.375432   0.375432   x
            x  P                21         0.621871   0.130072   0.872487   x
            x  P                22         0.872487   0.130072   0.621871   x
            x  P                23         0.616891   0.397123   0.616891   x
            x  P                24         0.873080   0.374015   0.873080   x
            x  P                25         0.616891   0.616891   0.397123   x
            x  P                26         0.872487   0.621871   0.130072   x
            x  P                27         0.621871   0.872487   0.130072   x
            x  P                28         0.873080   0.873080   0.374015   x
            x  P                29         0.626849   0.626849   0.880248   x
            x  P                30         0.880248   0.626849   0.626849   x
            x  P                31         0.626849   0.880248   0.626849   x
            x  P                32         0.875107   0.875107   0.875107   x
            x  In                1        -0.000214  -0.000214  -0.000214   x
            x  In                2         0.247671  -0.001913   0.247671   x
            x  In                3        -0.001913   0.247671   0.247671   x
            x  In                4         0.247671   0.247671  -0.001913   x
            x  In                5        -0.000280  -0.000280   0.498762   x
            x  In                6         0.252292   0.002904   0.745162   x
            x  In                7         0.002904   0.252292   0.745162   x
            x  In                8         0.263132   0.263132   0.471633   x
            x  In                9        -0.000280   0.498762  -0.000280   x
            x  In               10         0.263132   0.471633   0.263132   x
            x  In               11         0.002904   0.745162   0.252292   x
            x  In               12         0.252292   0.745162   0.002904   x
            x  In               13         0.002798   0.500037   0.500037   x
            x  In               14         0.255881   0.496515   0.743414   x
            x  In               15         0.005396   0.752012   0.752012   x
            x  In               16         0.255881   0.743414   0.496515   x
            x  In               17         0.498762  -0.000280  -0.000280   x
            x  In               18         0.745162   0.002904   0.252292   x
            x  In               19         0.471633   0.263132   0.263132   x
            x  In               20         0.745162   0.252292   0.002904   x
            x  In               21         0.500037   0.002798   0.500037   x
            x  In               22         0.752012   0.005396   0.752012   x
            x  In               23         0.496515   0.255881   0.743414   x
            x  In               24         0.743414   0.255881   0.496515   x
            x  In               25         0.500037   0.500037   0.002798   x
            x  In               26         0.743414   0.496515   0.255881   x
            x  In               27         0.496515   0.743414   0.255881   x
            x  In               28         0.752012   0.752012   0.005396   x
            x  In               29         0.751923   0.506844   0.751923   x
            x  In               30         0.506844   0.751923   0.751923   x
            x  In               31         0.751923   0.751923   0.506844   x
            xxxxxxxxxxxxxxxxxxxxxxxxxxxxxxxxxxxxxxxxxxxxxxxxxxxxxxxxxxxxxxxxx


------------------------------------------------------------------------ <-- SCF
SCF loop      Energy           Fermi           Energy gain       Timer   <-- SCF
                               energy          per atom          (sec)   <-- SCF
------------------------------------------------------------------------ <-- SCF
Initial  -6.11248514E+004  0.00000000E+000                     16675.56  <-- SCF
      1  -6.11250739E+004  3.87868057E+000   3.53135980E-003   17087.36  <-- SCF
      2  -6.11250834E+004  3.87867577E+000   1.52110843E-004   17488.75  <-- SCF
      3  -6.11250832E+004  3.87951641E+000  -3.62414661E-006   17833.46  <-- SCF
      4  -6.11250832E+004  3.88037292E+000  -5.27178032E-007   18197.25  <-- SCF
      5  -6.11250832E+004  3.88056606E+000   7.89182155E-008   18506.80  <-- SCF
      6  -6.11250832E+004  3.88088760E+000   3.41642798E-008   18819.60  <-- SCF
      7  -6.11250832E+004  3.88102779E+000  -7.32774962E-009   19093.92  <-- SCF
      8  -6.11250832E+004  3.88107937E+000  -1.54737748E-009   19332.54  <-- SCF
      9  -6.11250832E+004  3.88112019E+000   5.41523192E-010   19580.11  <-- SCF
------------------------------------------------------------------------ <-- SCF
 
Integrated Spin Density     =    0.974948E-05 hbar/2
Integrated |Spin Density|   =    0.447101E-03 hbar/2
 
Final energy, E             =  -61124.95176075     eV
Final free energy (E-TS)    =  -61125.08318793     eV
(energies not corrected for finite basis set)
 
NB est. 0K energy (E-0.5TS)      =  -61125.01747434     eV
 

 ************************************** Forces **************************************
 *                                                                                  *
 *                           Cartesian components (eV/A)                            *
 * -------------------------------------------------------------------------------- *
 *                         x                    y                    z              *
 *                                                                                  *
 * P               1     -0.00462             -0.00462              0.01807         *
 * P               2      0.01807             -0.00462             -0.00462         *
 * P               3     -0.00462              0.01807             -0.00462         *
 * P               4      0.03500              0.03500              0.03500         *
 * P               5      0.01682              0.01682             -0.00214         *
 * P               6     -0.01478              0.01548              0.00045         *
 * P               7      0.01548             -0.01478              0.00045         *
 * P               8     -0.00581             -0.00581              0.01148         *
[...]
                 26   dn:     0.872   1.959   0.000   0.000   2.831
  P              27   up:     0.872   1.959   0.000   0.000   2.831    -0.662        0.000
                 27   dn:     0.872   1.959   0.000   0.000   2.831
  P              28   up:     0.874   1.957   0.000   0.000   2.831    -0.661       -0.000
                 28   dn:     0.874   1.957   0.000   0.000   2.831
  P              29   up:     0.867   1.969   0.000   0.000   2.836    -0.672       -0.000
                 29   dn:     0.867   1.969   0.000   0.000   2.836
  P              30   up:     0.867   1.969   0.000   0.000   2.836    -0.672       -0.000
                 30   dn:     0.867   1.969   0.000   0.000   2.836
  P              31   up:     0.867   1.969   0.000   0.000   2.836    -0.672       -0.000
                 31   dn:     0.867   1.969   0.000   0.000   2.836
  P              32   up:     0.868   1.967   0.000   0.000   2.836    -0.671        0.000
                 32   dn:     0.868   1.967   0.000   0.000   2.836
  In              1   up:     0.447   0.717   4.995   0.000   6.158     0.684       -0.000
                  1   dn:     0.447   0.717   4.995   0.000   6.158
  In              2   up:     0.458   0.721   4.995   0.000   6.173     0.655        0.000
                  2   dn:     0.457   0.721   4.995   0.000   6.173
  In              3   up:     0.458   0.721   4.995   0.000   6.173     0.655        0.000
                  3   dn:     0.457   0.721   4.995   0.000   6.173
  In              4   up:     0.458   0.721   4.995   0.000   6.173     0.655        0.000
                  4   dn:     0.457   0.721   4.995   0.000   6.173
  In              5   up:     0.454   0.710   4.995   0.000   6.160     0.680       -0.000
                  5   dn:     0.454   0.710   4.995   0.000   6.160
  In              6   up:     0.466   0.716   4.995   0.000   6.177     0.647        0.000
                  6   dn:     0.466   0.716   4.995   0.000   6.177
  In              7   up:     0.466   0.716   4.995   0.000   6.177     0.647        0.000
                  7   dn:     0.466   0.716   4.995   0.000   6.177
  In              8   up:     0.519   0.722   4.996   0.000   6.238     0.524       -0.000
                  8   dn:     0.519   0.722   4.996   0.000   6.238
  In              9   up:     0.454   0.710   4.995   0.000   6.160     0.680       -0.000
                  9   dn:     0.454   0.710   4.995   0.000   6.160
  In             10   up:     0.519   0.722   4.996   0.000   6.238     0.524       -0.000
                 10   dn:     0.519   0.722   4.996   0.000   6.238
  In             11   up:     0.466   0.716   4.995   0.000   6.177     0.647        0.000
                 11   dn:     0.466   0.716   4.995   0.000   6.177
  In             12   up:     0.466   0.716   4.995   0.000   6.177     0.647        0.000
                 12   dn:     0.466   0.716   4.995   0.000   6.177
  In             13   up:     0.460   0.720   4.995   0.000   6.174     0.652       -0.000
                 13   dn:     0.460   0.720   4.995   0.000   6.174
  In             14   up:     0.458   0.714   4.995   0.000   6.168     0.665       -0.000
                 14   dn:     0.458   0.714   4.995   0.000   6.168
  In             15   up:     0.460   0.721   4.995   0.000   6.176     0.648        0.000
                 15   dn:     0.460   0.721   4.995   0.000   6.176
  In             16   up:     0.458   0.714   4.995   0.000   6.168     0.665       -0.000
                 16   dn:     0.458   0.714   4.995   0.000   6.168
  In             17   up:     0.454   0.710   4.995   0.000   6.160     0.680       -0.000
                 17   dn:     0.454   0.710   4.995   0.000   6.160
  In             18   up:     0.466   0.716   4.995   0.000   6.177     0.647        0.000
                 18   dn:     0.466   0.716   4.995   0.000   6.177
  In             19   up:     0.519   0.722   4.996   0.000   6.238     0.524       -0.000
                 19   dn:     0.519   0.722   4.996   0.000   6.238
  In             20   up:     0.466   0.716   4.995   0.000   6.177     0.647        0.000
                 20   dn:     0.466   0.716   4.995   0.000   6.177
  In             21   up:     0.460   0.720   4.995   0.000   6.174     0.652        0.000
                 21   dn:     0.460   0.720   4.995   0.000   6.174
  In             22   up:     0.460   0.721   4.995   0.000   6.176     0.648        0.000
                 22   dn:     0.460   0.721   4.995   0.000   6.176
  In             23   up:     0.458   0.714   4.995   0.000   6.168     0.665        0.000
                 23   dn:     0.458   0.714   4.995   0.000   6.168
  In             24   up:     0.458   0.714   4.995   0.000   6.168     0.665        0.000
                 24   dn:     0.458   0.714   4.995   0.000   6.168
  In             25   up:     0.460   0.720   4.995   0.000   6.174     0.652        0.000
                 25   dn:     0.460   0.720   4.995   0.000   6.174
  In             26   up:     0.458   0.714   4.995   0.000   6.168     0.665        0.000
                 26   dn:     0.458   0.714   4.995   0.000   6.168
  In             27   up:     0.458   0.714   4.995   0.000   6.168     0.665       -0.000
                 27   dn:     0.458   0.714   4.995   0.000   6.168
  In             28   up:     0.460   0.721   4.995   0.000   6.176     0.648        0.000
                 28   dn:     0.460   0.721   4.995   0.000   6.176
  In             29   up:     0.454   0.718   4.995   0.000   6.167     0.667       -0.000
                 29   dn:     0.454   0.718   4.995   0.000   6.167
  In             30   up:     0.454   0.718   4.995   0.000   6.167     0.666       -0.000
                 30   dn:     0.454   0.718   4.995   0.000   6.167
  In             31   up:     0.454   0.718   4.995   0.000   6.167     0.666        0.000
                 31   dn:     0.454   0.718   4.995   0.000   6.167
==============================================================================================

                 Bond                   Population        Spin       Length (A)
================================================================================
              P 4  -- P 25                   0.53         0.00          2.28045
              P 4  -- P 14                   0.53         0.00          2.28045
              P 4  -- P 23                   0.53         0.00          2.28045
              P 20 -- In 24                  0.67        -0.00          2.54478
              P 12 -- In 27                  0.67         0.00          2.54478
              P 20 -- In 26                  0.67         0.00          2.54478
              P 12 -- In 16                  0.67        -0.00          2.54478
              P 8  -- In 23                  0.67         0.00          2.54478
              P 8  -- In 14                  0.67        -0.00          2.54478
              P 31 -- In 30                  0.65        -0.00          2.54631
              P 30 -- In 31                  0.65         0.00          2.54631
              P 30 -- In 29                  0.65        -0.00          2.54631
              P 29 -- In 30                  0.65        -0.00          2.54631
              P 31 -- In 31                  0.65         0.00          2.54631
              P 29 -- In 29                  0.65        -0.00          2.54631
              P 6  -- In 21                  0.65        -0.00          2.54822
              P 17 -- In 21                  0.65        -0.00          2.54822
              P 9  -- In 13                  0.65        -0.00          2.54822
              P 10 -- In 25                  0.65        -0.00          2.54822
              P 7  -- In 13                  0.65        -0.00          2.54822
              P 19 -- In 25                  0.65         0.00          2.54822
              P 17 -- In 24                  0.67         0.00          2.54898
              P 6  -- In 23                  0.67         0.00          2.54898
              P 9  -- In 16                  0.67        -0.00          2.54898
              P 10 -- In 27                  0.67         0.00          2.54898
              P 7  -- In 14                  0.67        -0.00          2.54898
              P 19 -- In 26                  0.67        -0.00          2.54898
              P 32 -- In 1                   0.65        -0.00          2.55020
              P 5  -- In 4                   0.65         0.00          2.55153
              P 11 -- In 2                   0.65        -0.00          2.55153
              P 18 -- In 3                   0.65         0.00          2.55153
              P 1  -- In 2                   0.65        -0.00          2.55182
              P 2  -- In 2                   0.65        -0.00          2.55182
              P 3  -- In 4                   0.65         0.00          2.55182
              P 3  -- In 3                   0.65         0.00          2.55182
              P 2  -- In 4                   0.65         0.00          2.55182
              P 1  -- In 3                   0.65         0.00          2.55182
              P 29 -- In 28                  0.63        -0.00          2.55486
              P 31 -- In 22                  0.63        -0.00          2.55486
              P 30 -- In 15                  0.63        -0.00          2.55486
              P 13 -- In 15                  0.65         0.00          2.55848
              P 26 -- In 28                  0.65         0.00          2.55848
              P 27 -- In 28                  0.65         0.00          2.55848
              P 21 -- In 22                  0.65        -0.00          2.55848
              P 15 -- In 15                  0.65         0.00          2.55848
              P 22 -- In 22                  0.65         0.00          2.55848
              P 24 -- In 29                  0.66        -0.00          2.55871
              P 16 -- In 30                  0.66        -0.00          2.55871
              P 28 -- In 31                  0.66         0.00          2.55871
              P 3  -- In 9                   0.65        -0.00          2.55945
              P 2  -- In 17                  0.65         0.00          2.55945
              P 1  -- In 5                   0.65        -0.00          2.55945
              P 18 -- In 18                  0.65        -0.00          2.55979
              P 5  -- In 6                   0.65        -0.00          2.55979
              P 11 -- In 12                  0.65         0.00          2.55979
              P 18 -- In 20                  0.65         0.00          2.55979
              P 11 -- In 11                  0.65        -0.00          2.55979
              P 5  -- In 7                   0.65         0.00          2.55979
              P 31 -- In 21                  0.65         0.00          2.55998
              P 30 -- In 13                  0.65        -0.00          2.55998
              P 29 -- In 25                  0.65         0.00          2.55998
              P 22 -- In 7                   0.64         0.00          2.56409
              P 15 -- In 6                   0.64         0.00          2.56409
              P 21 -- In 20                  0.64         0.00          2.56409
              P 27 -- In 18                  0.64         0.00          2.56409
              P 13 -- In 12                  0.64         0.00          2.56409
              P 26 -- In 11                  0.64        -0.00          2.56409
              P 11 -- In 1                   0.65        -0.00          2.56508
              P 18 -- In 1                   0.65        -0.00          2.56508
              P 5  -- In 1                   0.65        -0.00          2.56508
              P 32 -- In 22                  0.65         0.00          2.56598
              P 32 -- In 15                  0.65         0.00          2.56598
              P 32 -- In 28                  0.65         0.00          2.56598
              P 8  -- In 25                  0.64         0.00          2.56811
              P 20 -- In 13                  0.64         0.00          2.56811
              P 12 -- In 21                  0.64         0.00          2.56811
              P 8  -- In 4                   0.64        -0.00          2.57440
              P 20 -- In 3                   0.64         0.00          2.57440
              P 12 -- In 2                   0.64        -0.00          2.57440
              P 24 -- In 9                   0.62        -0.00          2.57661
              P 16 -- In 17                  0.62        -0.00          2.57661
              P 28 -- In 5                   0.62        -0.00          2.57661
              P 9  -- In 11                  0.61        -0.00          2.58712
              P 17 -- In 18                  0.61         0.00          2.58712
              P 10 -- In 12                  0.61        -0.00          2.58712
              P 6  -- In 6                   0.61         0.00          2.58712
              P 19 -- In 20                  0.61         0.00          2.58712
              P 7  -- In 7                   0.61         0.00          2.58712
              P 28 -- In 11                  0.60        -0.00          2.58726
              P 28 -- In 18                  0.60         0.00          2.58726
              P 16 -- In 12                  0.60         0.00          2.58726
              P 16 -- In 6                   0.60         0.00          2.58726
              P 24 -- In 20                  0.60         0.00          2.58726
              P 24 -- In 7                   0.60        -0.00          2.58726
              P 22 -- In 24                  0.65        -0.00          2.59199
              P 15 -- In 16                  0.65        -0.00          2.59199
              P 27 -- In 27                  0.65        -0.00          2.59199
              P 21 -- In 23                  0.65        -0.00          2.59199
              P 26 -- In 26                  0.65         0.00          2.59199
              P 13 -- In 14                  0.65        -0.00          2.59199
              P 15 -- In 5                   0.63        -0.00          2.59225
              P 27 -- In 17                  0.63        -0.00          2.59225
              P 21 -- In 17                  0.63         0.00          2.59225
              P 22 -- In 5                   0.63        -0.00          2.59225
              P 13 -- In 9                   0.63        -0.00          2.59225
              P 26 -- In 9                   0.63        -0.00          2.59225
              P 23 -- In 29                  0.60         0.00          2.59579
              P 14 -- In 30                  0.60         0.00          2.59579
              P 25 -- In 31                  0.60         0.00          2.59579
              P 2  -- In 19                  0.59        -0.00          2.59986
              P 1  -- In 8                   0.59        -0.00          2.59986
              P 3  -- In 10                  0.59        -0.00          2.59986
              P 9  -- In 10                  0.59         0.00          2.63749
              P 10 -- In 10                  0.59         0.00          2.63749
              P 17 -- In 19                  0.59         0.00          2.63749
              P 6  -- In 8                   0.59         0.00          2.63749
              P 19 -- In 19                  0.59         0.00          2.63749
              P 7  -- In 8                   0.59        -0.00          2.63749
              P 25 -- In 26                  0.56        -0.00          2.65208
              P 14 -- In 14                  0.56         0.00          2.65208
              P 25 -- In 27                  0.56        -0.00          2.65208
              P 23 -- In 23                  0.56         0.00          2.65208
              P 23 -- In 24                  0.56        -0.00          2.65208
              P 14 -- In 16                  0.56         0.00          2.65208
================================================================================

 Hirshfeld supercell size:           2           2           2
Standard grid dimensions: 240 240 240
Fine grid dimensions:     240 240 240


     Hirshfeld Analysis
     ------------------
Species   Ion     Hirshfeld Charge (e)  Spin (hbar/2)
===================================================
  P        1                -0.24        0.00
  P        2                -0.24        0.00
  P        3                -0.24        0.00
  P        4                 0.03       -0.00
  P        5                -0.24        0.00
  P        6                -0.24       -0.00
  P        7                -0.24       -0.00
  P        8                -0.24        0.00
  P        9                -0.24       -0.00
  P       10                -0.24       -0.00
  P       11                -0.24        0.00
  P       12                -0.24        0.00
  P       13                -0.24        0.00
  P       14                -0.15       -0.00
  P       15                -0.24        0.00
  P       16                -0.24        0.00
  P       17                -0.24       -0.00
  P       18                -0.24        0.00
  P       19                -0.24       -0.00
  P       20                -0.24        0.00
  P       21                -0.24        0.00
  P       22                -0.24        0.00
  P       23                -0.15       -0.00
  P       24                -0.24        0.00
  P       25                -0.15       -0.00
  P       26                -0.24        0.00
  P       27                -0.24        0.00
  P       28                -0.24        0.00
  P       29                -0.24        0.00
  P       30                -0.24        0.00
  P       31                -0.24        0.00
  P       32                -0.24        0.00
  In       1                 0.24        0.00
  In       2                 0.23        0.00
  In       3                 0.23        0.00
  In       4                 0.23        0.00
  In       5                 0.24        0.00
  In       6                 0.24        0.00
  In       7                 0.24        0.00
  In       8                 0.17       -0.00
  In       9                 0.24        0.00
  In      10                 0.17       -0.00
  In      11                 0.24        0.00
  In      12                 0.24        0.00
  In      13                 0.23        0.00
  In      14                 0.24        0.00
  In      15                 0.23        0.00
  In      16                 0.24        0.00
  In      17                 0.24        0.00
  In      18                 0.24        0.00
  In      19                 0.17       -0.00
  In      20                 0.24        0.00
  In      21                 0.23        0.00
  In      22                 0.23        0.00
  In      23                 0.24        0.00
  In      24                 0.24        0.00
  In      25                 0.23        0.00
  In      26                 0.24        0.00
  In      27                 0.24        0.00
  In      28                 0.23        0.00
  In      29                 0.23        0.00
  In      30                 0.23        0.00
  In      31                 0.23        0.00
===================================================

 
 A BibTeX formatted list of references used in this run has been written to 
 In_Vacancy_Antisite.bib
 
Initialisation time =     29.61 s
Calculation time    =  42485.42 s
Finalisation time   =    155.22 s
Total time          =  42670.26 s
Peak Memory Use     = 10127312 kB
 
Overall parallel efficiency rating: Poor (36%)
 
Data was distributed by:-
G-vector (3-way); efficiency rating: Poor (39%)
k-point (36-way); efficiency rating: Very good (81%)
