 +-------------------------------------------------+
 |                                                 |
 |      CCC   AA    SSS  TTTTT  EEEEE  PPPP        |
 |     C     A  A  S       T    E      P   P       |
 |     C     AAAA   SS     T    EEE    PPPP        |
 |     C     A  A     S    T    E      P           |
 |      CCC  A  A  SSS     T    EEEEE  P           |
 |                                                 |
 +-------------------------------------------------+
 |                                                 |
 | Welcome to Academic Release CASTEP version 22.11|
 | Ab Initio Total Energy Program                  |
 |                                                 |
 | Authors:                                        |
 | M. Segall, M. Probert, C. Pickard, P. Hasnip,   |
 | S. Clark, K. Refson, J. R. Yates, M. Payne      |
 |                                                 |
 | Contributors:                                   |
 | P. Lindan, P. Haynes, J. White, V. Milman,      |
 | N. Govind, M. Gibson, P. Tulip, V. Cocula,      |
 | B. Montanari, D. Quigley, M. Glover,            |
 | L. Bernasconi, A. Perlov, M. Plummer,           |
 | E. McNellis, J. Meyer, J. Gale, D. Jochym       |
 | J. Aarons, B. Walker, R. Gillen, D. Jones       |
 | T. Green, I. J. Bush, C. J. Armstrong,          |
 | E. J. Higgins, E. L. Brown, M. S. McFly,        |
 | J. Wilkins, B-C. Shih, P. J. P. Byrne,          |
 | R. J. Maurer, J. C. Womack, J. Dziedzic,        |
 | A. Bartok-Partay, L. LeBlanc, T. K. Stenczel,   |
 | J. Kermode, S. Sturniolo, B. Shi, B. Durham     |
 | M. Evans, M. J. Smith                           |
 |                                                 |
 | Copyright (c) 2000 - 2021                       |
 |                                                 |
 |     Distributed under license from Cambridge    |
 |     Enterprise for academic use only.           |
 |                                                 |
 | Please cite                                     |
 |                                                 |
 |     "First principles methods using CASTEP"     |
 |                                                 |
 |         Zeitschrift fuer Kristallographie       |
 |           220(5-6) pp. 567-570 (2005)           |
 |                                                 |
 | S. J. Clark, M. D. Segall, C. J. Pickard,       |
 | P. J. Hasnip, M. J. Probert, K. Refson,         |
 | M. C. Payne                                     |
 |                                                 |
 |       in all publications arising from          |
 |              your use of CASTEP                 |
 |                                                 |
 +-------------------------------------------------+
 |                                                 |
 |              http://www.castep.org              |
 |                                                 |
 +-------------------------------------------------+



 Compiled for linux_x86_64_gfortran10-XT on Thu, 16 Mar 2023 13:12:36 +0000
 from code version Version unavailable
 Compiler: GNU Fortran 11.2.0; Optimisation: fast
 MATHLIBS: LibSci (LAPACK version 3.10.1)
 FFT Lib : fftw3 version commercial-fftw-3.3.10-sse2-avx-avx2-avx2_128
 Fundamental constants values: CODATA 2014

 Run started: Mon, 25 Mar 2024 14:56:43 +0000

 Atomic calculation performed for P: 1s2 2s2 2p6 3s2 3p3

 Converged in 47 iterations to an ae energy of -9309.074 eV

   ============================================================                
   | Pseudopotential Report - Date of generation 25-03-2024   |                
   ------------------------------------------------------------                
   | Element: P Ionic charge:  5.00 Level of theory: RSCAN    |                
   | Atomic Solver: Koelling-Harmon                           |                
   |                                                          |                
   |               Reference Electronic Structure             |                
   |         Orbital         Occupation         Energy        |                
   |            3s              2.000           -0.535        |                
   |            3p              3.000           -0.209        |                
   |                                                          |                
   |                 Pseudopotential Definition               |                
   |        Beta     l      e      Rc     scheme   norm       |                
   |          1      0   -0.535   1.807     qc      0         |                
   |          2      0    0.250   1.807     qc      0         |                
   |          3      1   -0.209   1.807     qc      0         |                
   |          4      1    0.250   1.807     qc      0         |                
   |          5      2    0.000   1.807     qc      0         |                
   |          6      2    0.250   1.807     qc      0         |                
   |         loc     3    0.000   1.807     pn      0         |                
   |                                                          |                
   | Augmentation charge Rinner = 1.263                       |                
   | Partial core correction Rc = 1.263                       |                
   ------------------------------------------------------------                
   | "3|1.8|4|4|5|30:31:32"                                   |                
   ------------------------------------------------------------                
   |      Author: Chris J. Pickard, Cambridge University      |                
   ============================================================                
 Warning: otfg_output_psp cannot write out meta-GGA pseudopotentials presently.

 Atomic calculation performed for In:
 1s2 2s2 2p6 3s2 3p6 3d10 4s2 4p6 4d10 5s2 5p1

 Converged in 84 iterations to an ae energy of -160093.327 eV

   ============================================================                
   | Pseudopotential Report - Date of generation 25-03-2024   |                
   ------------------------------------------------------------                
   | Element: In Ionic charge: 13.00 Level of theory: RSCAN   |                
   | Atomic Solver: Koelling-Harmon                           |                
   |                                                          |                
   |               Reference Electronic Structure             |                
   |         Orbital         Occupation         Energy        |                
   |            4d             10.000           -0.711        |                
   |            5s              2.000           -0.313        |                
   |            5p              1.000           -0.095        |                
   |                                                          |                
   |                 Pseudopotential Definition               |                
   |        Beta     l      e      Rc     scheme   norm       |                
   |          1      0   -0.313   2.501     qc      0         |                
   |          2      0    0.250   2.501     qc      0         |                
   |          3      1   -0.095   2.501     qc      0         |                
   |          4      1    0.250   2.501     qc      0         |                
   |          5      2   -0.711   2.207     qc      0         |                
   |          6      2    0.250   2.207     qc      0         |                
   |         loc     3    0.000   2.501     pn      0         |                
   |                                                          |                
   | Augmentation charge Rinner = 1.504                       |                
   | Partial core correction Rc = 1.504                       |                
   ------------------------------------------------------------                
   | "3|2.5|2.5|1.5|7|8|9|50:51:42U2.2U2.2"                   |                
   ------------------------------------------------------------                
   |      Author: Chris J. Pickard, Cambridge University      |                
   ============================================================                
 Warning: otfg_output_psp cannot write out meta-GGA pseudopotentials presently.

 Pseudo atomic calculation performed for P 3s2 3p3

 Converged in 23 iterations to a total energy of -208.0292 eV

 Pseudo atomic calculation performed for In 4d10 5s2 5p1

 Converged in 42 iterations to a total energy of -1747.4500 eV
 Calculation parallelised over 240 processes.
 Data is distributed by G-vector(6-way) and k-point(40-way)
 Each process may use up to 2 threads.

 ************************************ Title ************************************
 

 ***************************** General Parameters ******************************
  
 output verbosity                               : normal  (1)
 write checkpoint data to                       : StackingFaultStructs_(0_0_1)_(1_0_0)_4.check
 type of calculation                            : geometry optimization
 stress calculation                             : off
 density difference calculation                 : off
 electron localisation func (ELF) calculation   : off
 Hirshfeld analysis                             : on
 polarisation (Berry phase) analysis            : off
 molecular orbital projected DOS                : off
 deltaSCF calculation                           : off
 unlimited duration calculation
 timing information                             : on
 memory usage estimate                          : on
 write extra output files                       : on
 write final potential to formatted file        : off
 write final density to formatted file          : off
 write BibTeX reference list                    : on
 write OTFG pseudopotential files               : on
 write electrostatic potential file             : on
 write bands file                               : on
 checkpoint writing                             : off
  
 output         length unit                     : A
 output           mass unit                     : amu
 output           time unit                     : ps
 output         charge unit                     : e
 output           spin unit                     : hbar/2
 output         energy unit                     : eV
 output          force unit                     : eV/A
 output       velocity unit                     : A/ps
 output       pressure unit                     : GPa
 output     inv_length unit                     : 1/A
 output      frequency unit                     : cm-1
 output force constant unit                     : eV/A**2
 output         volume unit                     : A**3
 output   IR intensity unit                     : (D/A)**2/amu
 output         dipole unit                     : D
 output         efield unit                     : eV/A/e
 output        entropy unit                     : J/mol/K
 output    efield chi2 unit                     : pm/V
  
 wavefunctions paging                           : none
 random number generator seed                   : randomised (145643545)
 data distribution                              : optimal for this architecture
 optimization strategy                          : balance speed and memory

 *********************** Exchange-Correlation Parameters ***********************
  
 using functional                               : RSCAN
 relativistic treatment                         : Koelling-Harmon
 DFT+D: Semi-empirical dispersion correction    : off

 ************************* Pseudopotential Parameters **************************
  
 pseudopotential representation                 : reciprocal space
 <beta|phi> representation                      : reciprocal space
 spin-orbit coupling                            : off

 **************************** Basis Set Parameters *****************************
  
 plane wave basis set cut-off                   :   900.0000   eV
 size of standard grid                          :     2.0000
 size of   fine   gmax                          :    30.7390   1/A
 finite basis set correction                    : none

 **************************** Electronic Parameters ****************************
  
 number of  electrons                           :  216.0    
 net charge of system                           :  0.000    
 treating system as non-spin-polarized
 number of bands                                :        130

 ********************* Electronic Minimization Parameters **********************
  
 Method: Treating system as metallic with density mixing treatment of electrons,
         and number of  SD  steps               :          1
         and number of  CG  steps               :          4
  
 total energy / atom convergence tol.           : 0.1000E-07   eV
 eigen-energy convergence tolerance             : 0.2222E-08   eV
 max force / atom convergence tol.              : ignored
 convergence tolerance window                   :          3   cycles
 max. number of SCF cycles                      :         50
 number of fixed-spin iterations                :         10
 smearing scheme                                : Gaussian
 smearing width                                 : 0.2000       eV
 Fermi energy convergence tolerance             : 0.2721E-13   eV
 periodic dipole correction                     : NONE

 ************************** Density Mixing Parameters **************************
  
 density-mixing scheme                          : Pulay
 max. length of mixing history                  :         15
 charge density mixing amplitude                : 0.5000    
 cut-off energy for mixing                      :  900.0       eV

 *********************** Population Analysis Parameters ************************
  
 Population analysis with cutoff                :  3.000       A
 Population analysis output                     : summary and pdos components

 ********************** Geometry Optimization Parameters ***********************
  
 optimization method                            : LBFGS
 max. no. of LBFGS updates                      : unbounded
 preconditioned LBFGS is activated
 preconditioner type                            : EXP
     stabilization constant                     :     0.1000
     parameter A                                :     3.0000
     nearest neighbor distance                  : automatic
     cut-off distance                           : automatic
     parameter mu                               : automatic
 variable cell method                           : fixed basis quality
 max. number of steps                           :         30
 estimated bulk modulus                         :  500.0       GPa
 estimated <frequency>                          :  1668.       cm-1
 geom line minimiser                            : on
 with line minimiser tolerance                  :     0.4000
 total energy convergence tolerance             : 0.2000E-04   eV/atom
        max ionic |force| tolerance             : 0.1000E-02   eV/A
 max ionic |displacement| tolerance             : 0.1000E-02   A
   max |stress component| tolerance             : 0.1000       GPa
 convergence tolerance window                   :          2   steps
 backup results every                           :          5   steps
 write geom trajectory file                     : on

 *******************************************************************************
  

                           -------------------------------
                                      Unit Cell
                           -------------------------------
        Real Lattice(A)                      Reciprocal Lattice(1/A)
     5.9012740     0.0000000     0.0000000        1.064716756   0.000000000   0.000000000
     0.0000000     5.9012740     0.0000000        0.000000000   1.064716756  -0.163802592
     0.0000000     2.7236650    17.7038210        0.000000000   0.000000000   0.354905605

                       Lattice parameters(A)       Cell Angles
                    a =      5.901274          alpha =   81.253837
                    b =      5.901274          beta  =   90.000000
                    c =     17.912108          gamma =   90.000000

                       Current cell volume =           616.536183       A**3
                                   density =             2.837629   AMU/A**3
                                           =             4.711994     g/cm^3

                           -------------------------------
                                     Cell Contents
                           -------------------------------
                         Total number of ions in cell =   24
                      Total number of species in cell =    2
                        Max number of any one species =   12

            xxxxxxxxxxxxxxxxxxxxxxxxxxxxxxxxxxxxxxxxxxxxxxxxxxxxxxxxxxxx
            x  Element    Atom        Fractional coordinates of atoms  x
            x            Number           u          v          w      x
            x----------------------------------------------------------x
            x  P            1         0.250000   0.332864   0.903794   x 
            x  P            2         0.250000  -0.090352   0.737429   x 
            x  P            3         0.750000   0.409648   0.737429   x 
            x  P            4         0.750000  -0.167136   0.903794   x 
            x  P            5         0.750000   0.130174   0.259624   x 
            x  P            6         0.750000   0.556666   0.418889   x 
            x  P            7         0.750000  -0.017054   0.578616   x 
            x  P            8         0.250000   0.630174   0.259624   x 
            x  P            9         0.250000   0.204602   0.098362   x 
            x  P           10         0.750000   0.704602   0.098362   x 
            x  P           11         0.250000   0.056666   0.418889   x 
            x  P           12         0.250000   0.482946   0.578616   x 
            x  In           1         0.000000   0.122235   0.818491   x 
            x  In           2         0.500000   0.195903   0.658877   x 
            x  In           3         0.500000  -0.377765   0.818491   x 
            x  In           4         0.500000  -0.082630   0.179032   x 
            x  In           5         0.500000   0.495882   0.008923   x 
            x  In           6         0.000000  -0.004118   0.008923   x 
            x  In           7         0.000000   0.417370   0.179032   x 
            x  In           8         0.000000  -0.304097   0.658877   x 
            x  In           9         0.500000  -0.230168   0.498696   x 
            x  In          10         0.500000   0.343415   0.339267   x 
            x  In          11         0.000000  -0.156585   0.339267   x 
            x  In          12         0.000000   0.269832   0.498696   x 
            xxxxxxxxxxxxxxxxxxxxxxxxxxxxxxxxxxxxxxxxxxxxxxxxxxxxxxxxxxxx


                         No user defined ionic velocities

                           -------------------------------
                                   Details of Species
                           -------------------------------

                               Mass of species in AMU
                                    P   30.9737600
                                    In  114.8180000

                          Electric Quadrupole Moment (Barn)
                                    P    1.0000000 No Isotope Defined
                                    In    0.7700000 Isotope115

                          Files used for pseudopotentials:
                                    P 3|1.8|4|4|5|30:31:32
                                    In 3|2.5|2.5|1.5|7|8|9|50:51:42U2.2U2.2

                           -------------------------------
                              k-Points For BZ Sampling
                           -------------------------------
                       MP grid size for SCF calculation is  6  6  2
                            with an offset of   0.083  0.083  0.250
                       Number of kpoints used =            40

                           -------------------------------
                               Symmetry and Constraints
                           -------------------------------

                      Cell is a supercell containing 2 primitive cells
                      Maximum deviation from symmetry =  0.00000         ANG

                      Number of symmetry operations   =           1
                      Number of ionic constraints     =          48
                      Point group of crystal =     1: C1, 1, 1
                      Space group of crystal =     1: P1, P 1

             Set iprint > 1 for details on symmetry rotations/translations

                         Centre of mass is NOT constrained
             Set iprint > 1 for details of linear ionic constraints

                         Number of cell constraints= 6
                         Cell constraints are:  0 0 0 0 0 0

                         External pressure/stress (GPa)
                          0.00000   0.00000   0.00000
                                    0.00000   0.00000
                                              0.00000
 
+---------------- MEMORY AND SCRATCH DISK ESTIMATES PER PROCESS --------------+
|                                                     Memory          Disk    |
| Baseline code, static data and system overhead      488.0 MB         0.0 MB |
| BLAS internal memory storage                          0.0 MB         0.0 MB |
| Model and support data                              832.4 MB         0.0 MB |
| Electronic energy minimisation requirements          87.7 MB         0.0 MB |
| Force calculation requirements                       15.9 MB         0.0 MB |
|                                               ----------------------------- |
| Approx. total storage required per process         1408.1 MB         0.0 MB |
|                                                                             |
| Requirements will fluctuate during execution and may exceed these estimates |
+-----------------------------------------------------------------------------+
Calculating approximate eigenstates for fixed initial Hamiltonian
Cut-off for approx. calculation is  131.752 eV
Improving approx. states at cut-off of  450.000 eV
Resetting cut-off to  900.000 eV
Calculating total energy with cut-off of  900.000 eV.
------------------------------------------------------------------------ <-- SCF
SCF loop      Energy           Fermi           Energy gain       Timer   <-- SCF
                               energy          per atom          (sec)   <-- SCF
------------------------------------------------------------------------ <-- SCF
Initial  -2.36327640E+004  0.00000000E+000                        40.44  <-- SCF
      1  -2.35477872E+004  2.88490483E+000  -3.54069758E+000      51.17  <-- SCF
      2  -2.35478019E+004  2.88484091E+000   6.09348681E-004      60.61  <-- SCF
      3  -2.35720895E+004  3.20214867E+000   1.01198315E+000      71.11  <-- SCF
      4  -2.35759559E+004  3.22687756E+000   1.61103081E-001      83.58  <-- SCF
      5  -2.35749805E+004  3.41320978E+000  -4.06434323E-002      94.00  <-- SCF
      6  -2.35742381E+004  3.51547650E+000  -3.09323853E-002     104.28  <-- SCF
      7  -2.35739424E+004  3.56055344E+000  -1.23218182E-002     115.13  <-- SCF
      8  -2.35744736E+004  3.54517064E+000   2.21352715E-002     125.54  <-- SCF
      9  -2.35746433E+004  3.53308516E+000   7.06818927E-003     136.01  <-- SCF
     10  -2.35746637E+004  3.51819833E+000   8.50088455E-004     146.44  <-- SCF
     11  -2.35746615E+004  3.53159888E+000  -9.09986817E-005     157.10  <-- SCF
     12  -2.35746615E+004  3.52995992E+000  -3.92759948E-007     167.70  <-- SCF
     13  -2.35746615E+004  3.53014037E+000   3.80332664E-007     178.52  <-- SCF
     14  -2.35746615E+004  3.53011405E+000  -2.16251562E-007     187.92  <-- SCF
     15  -2.35746615E+004  3.52983356E+000   1.45529053E-007     197.37  <-- SCF
     16  -2.35746615E+004  3.53009411E+000   6.08850644E-008     206.79  <-- SCF
     17  -2.35746615E+004  3.53010205E+000   4.35575561E-009     214.34  <-- SCF
     18  -2.35746615E+004  3.53010511E+000   1.10453568E-009     221.90  <-- SCF
------------------------------------------------------------------------ <-- SCF
 
Final energy, E             =  -23574.56823915     eV
Final free energy (E-TS)    =  -23574.66149695     eV
(energies not corrected for finite basis set)
 
NB est. 0K energy (E-0.5TS)      =  -23574.61486805     eV
 
 
+---------------- MEMORY AND SCRATCH DISK ESTIMATES PER PROCESS --------------+
|                                                     Memory          Disk    |
| Model and support data                              554.7 MB         0.0 MB |
| Electronic energy minimisation requirements          87.7 MB         0.0 MB |
| Geometry minimisation requirements                  102.3 MB         0.0 MB |
|                                               ----------------------------- |
| Approx. total storage required per process          744.6 MB         0.0 MB |
|                                                                             |
| Requirements will fluctuate during execution and may exceed these estimates |
+-----------------------------------------------------------------------------+
 

 ******************************** Constrained Forces ********************************
 *                                                                                  *
 *                           Cartesian components (eV/A)                            *
 * -------------------------------------------------------------------------------- *
 *                         x                    y                    z              *
 *                                                                                  *
 * P               1      0.00000(cons'd)      0.00000(cons'd)      0.32360         *
 * P               2      0.00000(cons'd)      0.00000(cons'd)      0.17542         *
 * P               3      0.00000(cons'd)      0.00000(cons'd)      0.17542         *
 * P               4      0.00000(cons'd)      0.00000(cons'd)      0.32360         *
 * P               5     -0.00000(cons'd)      0.00000(cons'd)     -0.12573         *
 * P               6      0.00000(cons'd)      0.00000(cons'd)     -0.00366         *
 * P               7      0.00000(cons'd)      0.00000(cons'd)     -0.00972         *
 * P               8      0.00000(cons'd)     -0.00000(cons'd)     -0.12573         *
 * P               9      0.00000(cons'd)     -0.00000(cons'd)     -0.12515         *
 * P              10      0.00000(cons'd)      0.00000(cons'd)     -0.12515         *
 * P              11      0.00000(cons'd)      0.00000(cons'd)     -0.00366         *
 * P              12      0.00000(cons'd)      0.00000(cons'd)     -0.00972         *
 * In              1      0.00000(cons'd)      0.00000(cons'd)     -0.16521         *
 * In              2      0.00000(cons'd)      0.00000(cons'd)     -0.11755         *
 * In              3      0.00000(cons'd)      0.00000(cons'd)     -0.16521         *
 * In              4      0.00000(cons'd)      0.00000(cons'd)      0.16435         *
 * In              5      0.00000(cons'd)      0.00000(cons'd)     -0.16914         *
 * In              6      0.00000(cons'd)      0.00000(cons'd)     -0.16914         *
 * In              7      0.00000(cons'd)      0.00000(cons'd)      0.16435         *
 * In              8      0.00000(cons'd)      0.00000(cons'd)     -0.11755         *
 * In              9      0.00000(cons'd)      0.00000(cons'd)      0.05368         *
 * In             10      0.00000(cons'd)      0.00000(cons'd)     -0.00087         *
 * In             11      0.00000(cons'd)      0.00000(cons'd)     -0.00087         *
 * In             12      0.00000(cons'd)      0.00000(cons'd)      0.05368         *
 *                                                                                  *
 ************************************************************************************
 EXP precond LBFGS => estimated nearest neighbor distance :  2.619       A
 EXP precond LBFGS => estimated cutoff distance :  5.238       A

 ************************************** Forces **************************************
 *                                                                                  *
 *                           Cartesian components (eV/A)                            *
 * -------------------------------------------------------------------------------- *
 *                         x                    y                    z              *
 *                                                                                  *
 * P               1      0.24467(cons'd)      0.34126(cons'd)      0.32360         *
 * P               2      0.08906(cons'd)      0.08889(cons'd)      0.17542         *
 * P               3      0.08906(cons'd)      0.08889(cons'd)      0.17542         *
 * P               4      0.24467(cons'd)      0.34126(cons'd)      0.32360         *
 * P               5     -0.00737(cons'd)     -0.02085(cons'd)     -0.12573         *
 * P               6      0.00113(cons'd)     -0.00074(cons'd)     -0.00366         *
 * P               7      0.01544(cons'd)      0.01519(cons'd)     -0.00972         *
 * P               8     -0.00737(cons'd)     -0.02085(cons'd)     -0.12573         *
 * P               9     -0.05082(cons'd)     -0.09625(cons'd)     -0.12515         *
 * P              10     -0.05082(cons'd)     -0.09625(cons'd)     -0.12515         *
 * P              11      0.00113(cons'd)     -0.00074(cons'd)     -0.00366         *
 * P              12      0.01544(cons'd)      0.01519(cons'd)     -0.00972         *
 * In              1     -0.13634(cons'd)     -0.15586(cons'd)     -0.16521         *
 * In              2     -0.02130(cons'd)     -0.02292(cons'd)     -0.11755         *
 * In              3     -0.13634(cons'd)     -0.15586(cons'd)     -0.16521         *
 * In              4     -0.05052(cons'd)     -0.03383(cons'd)      0.16435         *
 * In              5     -0.07038(cons'd)     -0.10361(cons'd)     -0.16914         *
 * In              6     -0.07038(cons'd)     -0.10361(cons'd)     -0.16914         *
 * In              7     -0.05052(cons'd)     -0.03383(cons'd)      0.16435         *
 * In              8     -0.02130(cons'd)     -0.02292(cons'd)     -0.11755         *
 * In              9     -0.00491(cons'd)     -0.00506(cons'd)      0.05368         *
 * In             10     -0.00867(cons'd)     -0.00621(cons'd)     -0.00087         *
 * In             11     -0.00867(cons'd)     -0.00621(cons'd)     -0.00087         *
 * In             12     -0.00491(cons'd)     -0.00506(cons'd)      0.05368         *
 *                                                                                  *
 ************************************************************************************
 doing test perturbation to get energy scale for EXP preconditioner

                           -------------------------------
                                     Cell Contents
                           -------------------------------

            xxxxxxxxxxxxxxxxxxxxxxxxxxxxxxxxxxxxxxxxxxxxxxxxxxxxxxxxxxxxxxxxx
            x  Element         Atom        Fractional coordinates of atoms  x
            x                 Number           u          v          w      x
            x---------------------------------------------------------------x
            x  P                 1         0.251452   0.335311   0.905047   x
            x  P                 2         0.251452   0.913359   0.738515   x
            x  P                 3         0.753735   0.412172   0.738515   x
            x  P                 4         0.753735   0.836498   0.905047   x
            x  P                 5         0.753735   0.131076   0.260047   x
            x  P                 6         0.753735   0.559384   0.419557   x
            x  P                 7         0.753735   0.986747   0.579508   x
            x  P                 8         0.251452   0.633004   0.260047   x
            x  P                 9         0.251452   0.205625   0.098524   x
            x  P                10         0.753735   0.707553   0.098524   x
            x  P                11         0.251452   0.057456   0.419557   x
            x  P                12         0.251452   0.485560   0.579508   x
            x  In                1         0.000000   0.123822   0.819664   x
            x  In                2         0.502745   0.197572   0.659871   x
            x  In                3         0.502745   0.625429   0.819664   x
            x  In                4         0.502745   0.920969   0.179326   x
            x  In                5         0.502745   0.498003   0.008937   x
            x  In                6         0.000000   0.999610   0.008937   x
            x  In                7         0.000000   0.419362   0.179326   x
            x  In                8         0.000000   0.699179   0.659871   x
            x  In                9         0.502745   0.773206   0.499479   x
            x  In               10         0.502745   0.345290   0.339814   x
            x  In               11         0.000000   0.846897   0.339814   x
            x  In               12         0.000000   0.271599   0.499479   x
            xxxxxxxxxxxxxxxxxxxxxxxxxxxxxxxxxxxxxxxxxxxxxxxxxxxxxxxxxxxxxxxxx


------------------------------------------------------------------------ <-- SCF
SCF loop      Energy           Fermi           Energy gain       Timer   <-- SCF
                               energy          per atom          (sec)   <-- SCF
------------------------------------------------------------------------ <-- SCF
Initial  -2.35733591E+004  0.00000000E+000                       236.13  <-- SCF
      1  -2.35745261E+004  3.52896281E+000   4.86261754E-002     246.31  <-- SCF
      2  -2.35746643E+004  3.52887225E+000   5.75777222E-003     259.01  <-- SCF
      3  -2.35746646E+004  3.53052226E+000   1.20838195E-005     269.75  <-- SCF
      4  -2.35746655E+004  3.53152037E+000   3.55111911E-005     280.69  <-- SCF
      5  -2.35746656E+004  3.53188933E+000   6.88862969E-006     292.36  <-- SCF
      6  -2.35746657E+004  3.53192742E+000   1.29147922E-006     303.30  <-- SCF
      7  -2.35746657E+004  3.53200080E+000   8.16425755E-008     312.92  <-- SCF
      8  -2.35746657E+004  3.53202472E+000  -6.86825526E-009     321.63  <-- SCF
      9  -2.35746657E+004  3.53203914E+000  -6.24077485E-009     329.76  <-- SCF
     10  -2.35746657E+004  3.53203724E+000  -6.46557473E-010     337.31  <-- SCF
     11  -2.35746657E+004  3.53203054E+000   4.61587383E-010     344.82  <-- SCF
------------------------------------------------------------------------ <-- SCF
 
Final energy, E             =  -23574.57596162     eV
Final free energy (E-TS)    =  -23574.66566141     eV
(energies not corrected for finite basis set)
 
NB est. 0K energy (E-0.5TS)      =  -23574.62081151     eV
 

 ************************************** Forces **************************************
 *                                                                                  *
 *                           Cartesian components (eV/A)                            *
 * -------------------------------------------------------------------------------- *
 *                         x                    y                    z              *
 *                                                                                  *
 * P               1      0.26144(cons'd)      0.36967(cons'd)      0.24735         *
 * P               2      0.11922(cons'd)      0.00888(cons'd)      0.17952         *
 * P               3     -0.05040(cons'd)      0.09908(cons'd)      0.18356         *
 * P               4      0.20470(cons'd)      0.30766(cons'd)      0.27812         *
 * P               5     -0.16081(cons'd)      0.10266(cons'd)     -0.12375         *
 * P               6     -0.14275(cons'd)     -0.02180(cons'd)     -0.00086         *
 * P               7     -0.13794(cons'd)     -0.06520(cons'd)     -0.00545         *
 * P               8      0.02145(cons'd)     -0.05412(cons'd)     -0.12578         *
 * P               9     -0.04993(cons'd)     -0.01889(cons'd)     -0.10044         *
 * P              10     -0.16539(cons'd)     -0.11415(cons'd)     -0.11367         *
 * P              11      0.02497(cons'd)      0.12097(cons'd)     -0.00262         *
 * P              12      0.04632(cons'd)      0.01670(cons'd)     -0.00678         *
 * In              1     -0.02909(cons'd)     -0.11759(cons'd)     -0.19750         *
 * In              2     -0.07745(cons'd)      0.07627(cons'd)     -0.12095         *
 * In              3     -0.19083(cons'd)     -0.17926(cons'd)     -0.20497         *
 * In              4     -0.10679(cons'd)     -0.13606(cons'd)      0.16662         *
 * In              5     -0.08713(cons'd)     -0.14170(cons'd)     -0.07112         *
 * In              6     -0.02987(cons'd)     -0.05743(cons'd)     -0.11228         *
 * In              7      0.10878(cons'd)     -0.02109(cons'd)      0.16683         *
 * In              8      0.15421(cons'd)     -0.04995(cons'd)     -0.12276         *
 * In              9     -0.02663(cons'd)     -0.07803(cons'd)      0.08443         *
 * In             10     -0.06608(cons'd)      0.01408(cons'd)     -0.00591         *
 * In             11      0.16982(cons'd)     -0.12046(cons'd)     -0.00154         *
 * In             12      0.21018(cons'd)      0.05976(cons'd)      0.00995         *
 *                                                                                  *
 ************************************************************************************
 EXP precond LBFGS => estimated parameter mu :  1.623       eV/A**2
 LBFGS: finished iteration     0 with enthalpy= -2.35746615E+004 eV
  
 +-----------+-----------------+-----------------+------------+-----+ <-- LBFGS
 | Parameter |      value      |    tolerance    |    units   | OK? | <-- LBFGS
 +-----------+-----------------+-----------------+------------+-----+ <-- LBFGS
 |  dE/ion   |   0.000000E+000 |   2.000000E-005 |         eV | No  | <-- LBFGS
 |  |F|max   |   5.159343E-001 |   1.000000E-003 |       eV/A | No  | <-- LBFGS
 |  |dR|max  |   1.988644E-015 |   1.000000E-003 |          A | No  | <-- LBFGS
 +-----------+-----------------+-----------------+------------+-----+ <-- LBFGS
  

================================================================================
 Starting LBFGS iteration          1 ...
================================================================================
  
 +------------+-------------+-------------+-----------------+ <-- min LBFGS
 |    Step    |   lambda    |   F.delta'  |    enthalpy     | <-- min LBFGS
 +------------+-------------+-------------+-----------------+ <-- min LBFGS
 |  previous  |    0.000000 |    0.359414 |   -23574.661497 | <-- min LBFGS
 +------------+-------------+-------------+-----------------+ <-- min LBFGS
  

--------------------------------------------------------------------------------
 LBFGS: starting iteration         1 with trial guess (lambda=  1.000000)
--------------------------------------------------------------------------------

                           -------------------------------
                                     Cell Contents
                           -------------------------------

            xxxxxxxxxxxxxxxxxxxxxxxxxxxxxxxxxxxxxxxxxxxxxxxxxxxxxxxxxxxxxxxxx
            x  Element         Atom        Fractional coordinates of atoms  x
            x                 Number           u          v          w      x
            x---------------------------------------------------------------x
            x  P                 1         0.250000   0.331880   0.905925   x
            x  P                 2         0.250000  -0.090941   0.738705   x
            x  P                 3         0.750000   0.409059   0.738705   x
            x  P                 4         0.750000  -0.168120   0.905925   x
            x  P                 5         0.750000   0.130662   0.258565   x
            x  P                 6         0.750000   0.556758   0.418691   x
            x  P                 7         0.750000  -0.017079   0.578672   x
            x  P                 8         0.250000   0.630662   0.258565   x
            x  P                 9         0.250000   0.205116   0.097249   x
            x  P                10         0.750000   0.705116   0.097249   x
            x  P                11         0.250000   0.056758   0.418691   x
            x  P                12         0.250000   0.482921   0.578672   x
            x  In                1         0.000000   0.122140   0.818697   x
            x  In                2         0.500000   0.195951   0.658773   x
            x  In                3         0.500000  -0.377860   0.818697   x
            x  In                4         0.500000  -0.082661   0.179098   x
            x  In                5         0.500000   0.496336   0.007938   x
            x  In                6         0.000000  -0.003664   0.007938   x
            x  In                7         0.000000   0.417339   0.179098   x
            x  In                8         0.000000  -0.304049   0.658773   x
            x  In                9         0.500000  -0.230278   0.498935   x
            x  In               10         0.500000   0.343653   0.338753   x
            x  In               11         0.000000  -0.156347   0.338753   x
            x  In               12         0.000000   0.269722   0.498935   x
            xxxxxxxxxxxxxxxxxxxxxxxxxxxxxxxxxxxxxxxxxxxxxxxxxxxxxxxxxxxxxxxxx


------------------------------------------------------------------------ <-- SCF
SCF loop      Energy           Fermi           Energy gain       Timer   <-- SCF
                               energy          per atom          (sec)   <-- SCF
------------------------------------------------------------------------ <-- SCF
Initial  -2.35731366E+004  0.00000000E+000                       353.56  <-- SCF
      1  -2.35745342E+004  3.54325517E+000   5.82327281E-002     363.72  <-- SCF
      2  -2.35746855E+004  3.54315986E+000   6.30466485E-003     376.35  <-- SCF
      3  -2.35746853E+004  3.55051419E+000  -9.59710290E-006     387.27  <-- SCF
      4  -2.35746856E+004  3.55845491E+000   1.19839274E-005     398.27  <-- SCF
      5  -2.35746856E+004  3.56217239E+000   8.85340326E-007     410.33  <-- SCF
      6  -2.35746856E+004  3.56501925E+000  -2.55869874E-006     421.30  <-- SCF
      7  -2.35746855E+004  3.56773247E+000  -1.81064992E-006     432.29  <-- SCF
      8  -2.35746855E+004  3.56907059E+000  -3.39029165E-007     441.99  <-- SCF
      9  -2.35746855E+004  3.56949317E+000  -4.68728388E-009     450.70  <-- SCF
     10  -2.35746855E+004  3.56955824E+000   5.88759154E-009     458.93  <-- SCF
     11  -2.35746855E+004  3.56959929E+000   2.88089305E-010     466.60  <-- SCF
------------------------------------------------------------------------ <-- SCF
 
Final energy, E             =  -23574.59982327     eV
Final free energy (E-TS)    =  -23574.68551134     eV
(energies not corrected for finite basis set)
 
NB est. 0K energy (E-0.5TS)      =  -23574.64266731     eV
 

 ******************************** Constrained Forces ********************************
 *                                                                                  *
 *                           Cartesian components (eV/A)                            *
 * -------------------------------------------------------------------------------- *
 *                         x                    y                    z              *
 *                                                                                  *
 * P               1      0.00000(cons'd)      0.00000(cons'd)      0.04261         *
 * P               2      0.00000(cons'd)      0.00000(cons'd)     -0.03142         *
 * P               3      0.00000(cons'd)      0.00000(cons'd)     -0.03141         *
 * P               4      0.00000(cons'd)      0.00000(cons'd)      0.04262         *
 * P               5     -0.00000(cons'd)      0.00000(cons'd)      0.05332         *
 * P               6      0.00000(cons'd)      0.00000(cons'd)      0.01461         *
 * P               7      0.00000(cons'd)      0.00000(cons'd)      0.01583         *
 * P               8      0.00000(cons'd)     -0.00000(cons'd)      0.05334         *
 * P               9      0.00000(cons'd)      0.00000(cons'd)      0.04554         *
 * P              10      0.00000(cons'd)      0.00000(cons'd)      0.04554         *
 * P              11      0.00000(cons'd)      0.00000(cons'd)      0.01461         *
 * P              12      0.00000(cons'd)      0.00000(cons'd)      0.01583         *
 * In              1      0.00000(cons'd)      0.00000(cons'd)      0.01242         *
 * In              2      0.00000(cons'd)      0.00000(cons'd)      0.02028         *
 * In              3      0.00000(cons'd)      0.00000(cons'd)      0.01243         *
 * In              4      0.00000(cons'd)      0.00000(cons'd)     -0.06090         *
 * In              5      0.00000(cons'd)      0.00000(cons'd)     -0.05796         *
 * In              6      0.00000(cons'd)      0.00000(cons'd)     -0.05791         *
 * In              7      0.00000(cons'd)      0.00000(cons'd)     -0.06089         *
 * In              8      0.00000(cons'd)      0.00000(cons'd)      0.02028         *
 * In              9      0.00000(cons'd)      0.00000(cons'd)     -0.03601         *
 * In             10      0.00000(cons'd)      0.00000(cons'd)     -0.01838         *
 * In             11      0.00000(cons'd)      0.00000(cons'd)     -0.01837         *
 * In             12      0.00000(cons'd)      0.00000(cons'd)     -0.03600         *
 *                                                                                  *
 ************************************************************************************
  
 +------------+-------------+-------------+-----------------+ <-- min LBFGS
 |    Step    |   lambda    |   F.delta'  |    enthalpy     | <-- min LBFGS
 +------------+-------------+-------------+-----------------+ <-- min LBFGS
 |  previous  |    0.000000 |    0.359414 |   -23574.661497 | <-- min LBFGS
 | trial step |    1.000000 |   -0.001085 |   -23574.685511 | <-- min LBFGS
 +------------+-------------+-------------+-----------------+ <-- min LBFGS
  
 LBFGS: finished iteration     1 with enthalpy= -2.35746855E+004 eV
  
 +-----------+-----------------+-----------------+------------+-----+ <-- LBFGS
 | Parameter |      value      |    tolerance    |    units   | OK? | <-- LBFGS
 +-----------+-----------------+-----------------+------------+-----+ <-- LBFGS
 |  dE/ion   |   1.000600E-003 |   2.000000E-005 |         eV | No  | <-- LBFGS
 |  |F|max   |   6.089523E-002 |   1.000000E-003 |       eV/A | No  | <-- LBFGS
 |  |dR|max  |   3.773777E-002 |   1.000000E-003 |          A | No  | <-- LBFGS
 +-----------+-----------------+-----------------+------------+-----+ <-- LBFGS
  

================================================================================
 Starting LBFGS iteration          2 ...
================================================================================
  
 +------------+-------------+-------------+-----------------+ <-- min LBFGS
 |    Step    |   lambda    |   F.delta'  |    enthalpy     | <-- min LBFGS
 +------------+-------------+-------------+-----------------+ <-- min LBFGS
 |  previous  |    0.000000 |    0.093772 |   -23574.685511 | <-- min LBFGS
 +------------+-------------+-------------+-----------------+ <-- min LBFGS
  

--------------------------------------------------------------------------------
 LBFGS: starting iteration         2 with trial guess (lambda=  1.000000)
--------------------------------------------------------------------------------

                           -------------------------------
                                     Cell Contents
                           -------------------------------

            xxxxxxxxxxxxxxxxxxxxxxxxxxxxxxxxxxxxxxxxxxxxxxxxxxxxxxxxxxxxxxxxx
            x  Element         Atom        Fractional coordinates of atoms  x
            x                 Number           u          v          w      x
            x---------------------------------------------------------------x
            x  P                 1         0.250000   0.331696   0.906325   x
            x  P                 2         0.250000  -0.090940   0.738702   x
            x  P                 3         0.750000   0.409060   0.738702   x
            x  P                 4         0.750000  -0.168304   0.906325   x
            x  P                 5         0.750000   0.130608   0.258683   x
            x  P                 6         0.750000   0.556763   0.418681   x
            x  P                 7         0.750000  -0.017113   0.578746   x
            x  P                 8         0.250000   0.630608   0.258683   x
            x  P                 9         0.250000   0.205097   0.097289   x
            x  P                10         0.750000   0.705097   0.097289   x
            x  P                11         0.250000   0.056763   0.418681   x
            x  P                12         0.250000   0.482887   0.578745   x
            x  In                1         0.000000   0.122071   0.818845   x
            x  In                2         0.500000   0.195896   0.658892   x
            x  In                3         0.500000  -0.377929   0.818845   x
            x  In                4         0.500000  -0.082530   0.178815   x
            x  In                5         0.500000   0.496492   0.007600   x
            x  In                6         0.000000  -0.003508   0.007601   x
            x  In                7         0.000000   0.417470   0.178815   x
            x  In                8         0.000000  -0.304104   0.658892   x
            x  In                9         0.500000  -0.230199   0.498765   x
            x  In               10         0.500000   0.343697   0.338656   x
            x  In               11         0.000000  -0.156303   0.338656   x
            x  In               12         0.000000   0.269801   0.498765   x
            xxxxxxxxxxxxxxxxxxxxxxxxxxxxxxxxxxxxxxxxxxxxxxxxxxxxxxxxxxxxxxxxx


------------------------------------------------------------------------ <-- SCF
SCF loop      Energy           Fermi           Energy gain       Timer   <-- SCF
                               energy          per atom          (sec)   <-- SCF
------------------------------------------------------------------------ <-- SCF
Initial  -2.35745457E+004  0.00000000E+000                       475.33  <-- SCF
      1  -2.35746839E+004  3.56532600E+000   5.75907856E-003     485.65  <-- SCF
      2  -2.35746869E+004  3.56532336E+000   1.23244023E-004     498.45  <-- SCF
      3  -2.35746869E+004  3.56385855E+000  -1.44601135E-006     509.33  <-- SCF
      4  -2.35746868E+004  3.56323064E+000  -5.81660685E-007     520.66  <-- SCF
      5  -2.35746868E+004  3.56248825E+000  -2.83236772E-007     530.28  <-- SCF
      6  -2.35746868E+004  3.56160230E+000  -2.77836161E-007     540.20  <-- SCF
      7  -2.35746868E+004  3.56098552E+000  -8.59003678E-008     549.21  <-- SCF
      8  -2.35746868E+004  3.56072641E+000  -9.58931353E-009     558.08  <-- SCF
      9  -2.35746868E+004  3.56064560E+000   6.10079051E-010     565.65  <-- SCF
------------------------------------------------------------------------ <-- SCF
 
Final energy, E             =  -23574.60275089     eV
Final free energy (E-TS)    =  -23574.68682942     eV
(energies not corrected for finite basis set)
 
NB est. 0K energy (E-0.5TS)      =  -23574.64479016     eV
 

 ******************************** Constrained Forces ********************************
 *                                                                                  *
 *                           Cartesian components (eV/A)                            *
 * -------------------------------------------------------------------------------- *
 *                         x                    y                    z              *
 *                                                                                  *
 * P               1      0.00000(cons'd)      0.00000(cons'd)     -0.00324         *
 * P               2      0.00000(cons'd)      0.00000(cons'd)      0.00529         *
 * P               3      0.00000(cons'd)      0.00000(cons'd)      0.00528         *
 * P               4      0.00000(cons'd)      0.00000(cons'd)     -0.00324         *
 * P               5     -0.00000(cons'd)     -0.00000(cons'd)      0.00197         *
 * P               6      0.00000(cons'd)      0.00000(cons'd)      0.00109         *
 * P               7      0.00000(cons'd)      0.00000(cons'd)      0.00329         *
 * P               8      0.00000(cons'd)      0.00000(cons'd)      0.00195         *
 * P               9     -0.00000(cons'd)      0.00000(cons'd)      0.00639         *
 * P              10      0.00000(cons'd)     -0.00000(cons'd)      0.00638         *
 * P              11      0.00000(cons'd)     -0.00000(cons'd)      0.00109         *
 * P              12      0.00000(cons'd)      0.00000(cons'd)      0.00330         *
 * In              1      0.00000(cons'd)      0.00000(cons'd)     -0.00443         *
 * In              2      0.00000(cons'd)      0.00000(cons'd)     -0.00633         *
 * In              3      0.00000(cons'd)      0.00000(cons'd)     -0.00444         *
 * In              4      0.00000(cons'd)      0.00000(cons'd)      0.00145         *
 * In              5      0.00000(cons'd)      0.00000(cons'd)     -0.00153         *
 * In              6      0.00000(cons'd)      0.00000(cons'd)     -0.00156         *
 * In              7      0.00000(cons'd)      0.00000(cons'd)      0.00145         *
 * In              8      0.00000(cons'd)      0.00000(cons'd)     -0.00634         *
 * In              9      0.00000(cons'd)      0.00000(cons'd)     -0.00108         *
 * In             10      0.00000(cons'd)      0.00000(cons'd)     -0.00283         *
 * In             11      0.00000(cons'd)      0.00000(cons'd)     -0.00284         *
 * In             12      0.00000(cons'd)      0.00000(cons'd)     -0.00109         *
 *                                                                                  *
 ************************************************************************************
  
 +------------+-------------+-------------+-----------------+ <-- min LBFGS
 |    Step    |   lambda    |   F.delta'  |    enthalpy     | <-- min LBFGS
 +------------+-------------+-------------+-----------------+ <-- min LBFGS
 |  previous  |    0.000000 |    0.093772 |   -23574.685511 | <-- min LBFGS
 | trial step |    1.000000 |   -0.001781 |   -23574.686829 | <-- min LBFGS
 +------------+-------------+-------------+-----------------+ <-- min LBFGS
  
 LBFGS: finished iteration     2 with enthalpy= -2.35746868E+004 eV
  
 +-----------+-----------------+-----------------+------------+-----+ <-- LBFGS
 | Parameter |      value      |    tolerance    |    units   | OK? | <-- LBFGS
 +-----------+-----------------+-----------------+------------+-----+ <-- LBFGS
 |  dE/ion   |   5.492014E-005 |   2.000000E-005 |         eV | No  | <-- LBFGS
 |  |F|max   |   6.385885E-003 |   1.000000E-003 |       eV/A | No  | <-- LBFGS
 |  |dR|max  |   7.067917E-003 |   1.000000E-003 |          A | No  | <-- LBFGS
 +-----------+-----------------+-----------------+------------+-----+ <-- LBFGS
  

================================================================================
 Starting LBFGS iteration          3 ...
================================================================================
  
 +------------+-------------+-------------+-----------------+ <-- min LBFGS
 |    Step    |   lambda    |   F.delta'  |    enthalpy     | <-- min LBFGS
 +------------+-------------+-------------+-----------------+ <-- min LBFGS
 |  previous  |    0.000000 |    0.007815 |   -23574.686829 | <-- min LBFGS
 +------------+-------------+-------------+-----------------+ <-- min LBFGS
  

--------------------------------------------------------------------------------
 LBFGS: starting iteration         3 with trial guess (lambda=  1.000000)
--------------------------------------------------------------------------------

                           -------------------------------
                                     Cell Contents
                           -------------------------------

            xxxxxxxxxxxxxxxxxxxxxxxxxxxxxxxxxxxxxxxxxxxxxxxxxxxxxxxxxxxxxxxxx
            x  Element         Atom        Fractional coordinates of atoms  x
            x                 Number           u          v          w      x
            x---------------------------------------------------------------x
            x  P                 1         0.250000   0.331715   0.906283   x
            x  P                 2         0.250000  -0.090933   0.738689   x
            x  P                 3         0.750000   0.409067   0.738689   x
            x  P                 4         0.750000  -0.168285   0.906283   x
            x  P                 5         0.750000   0.130589   0.258724   x
            x  P                 6         0.750000   0.556758   0.418690   x
            x  P                 7         0.750000  -0.017112   0.578743   x
            x  P                 8         0.250000   0.630589   0.258724   x
            x  P                 9         0.250000   0.205068   0.097353   x
            x  P                10         0.750000   0.705068   0.097353   x
            x  P                11         0.250000   0.056758   0.418690   x
            x  P                12         0.250000   0.482888   0.578743   x
            x  In                1         0.000000   0.122095   0.818794   x
            x  In                2         0.500000   0.195918   0.658844   x
            x  In                3         0.500000  -0.377905   0.818794   x
            x  In                4         0.500000  -0.082552   0.178862   x
            x  In                5         0.500000   0.496493   0.007598   x
            x  In                6         0.000000  -0.003507   0.007598   x
            x  In                7         0.000000   0.417448   0.178862   x
            x  In                8         0.000000  -0.304082   0.658844   x
            x  In                9         0.500000  -0.230195   0.498757   x
            x  In               10         0.500000   0.343694   0.338663   x
            x  In               11         0.000000  -0.156306   0.338663   x
            x  In               12         0.000000   0.269805   0.498757   x
            xxxxxxxxxxxxxxxxxxxxxxxxxxxxxxxxxxxxxxxxxxxxxxxxxxxxxxxxxxxxxxxxx


------------------------------------------------------------------------ <-- SCF
SCF loop      Energy           Fermi           Energy gain       Timer   <-- SCF
                               energy          per atom          (sec)   <-- SCF
------------------------------------------------------------------------ <-- SCF
Initial  -2.35746060E+004  0.00000000E+000                       574.45  <-- SCF
      1  -2.35746868E+004  3.56085666E+000   3.36653659E-003     584.76  <-- SCF
      2  -2.35746868E+004  3.56085661E+000   3.40915989E-006     597.43  <-- SCF
      3  -2.35746868E+004  3.56081817E+000   2.66452316E-008     607.12  <-- SCF
      4  -2.35746868E+004  3.56089432E+000   2.03049467E-008     615.30  <-- SCF
      5  -2.35746868E+004  3.56091298E+000   3.47640651E-009     622.85  <-- SCF
      6  -2.35746868E+004  3.56094409E+000   3.96106682E-010     630.40  <-- SCF
------------------------------------------------------------------------ <-- SCF
 
Final energy, E             =  -23574.60259486     eV
Final free energy (E-TS)    =  -23574.68684723     eV
(energies not corrected for finite basis set)
 
NB est. 0K energy (E-0.5TS)      =  -23574.64472104     eV
 

 ******************************** Constrained Forces ********************************
 *                                                                                  *
 *                           Cartesian components (eV/A)                            *
 * -------------------------------------------------------------------------------- *
 *                         x                    y                    z              *
 *                                                                                  *
 * P               1      0.00000(cons'd)      0.00000(cons'd)      0.00034         *
 * P               2      0.00000(cons'd)      0.00000(cons'd)     -0.00052         *
 * P               3      0.00000(cons'd)      0.00000(cons'd)     -0.00052         *
 * P               4      0.00000(cons'd)      0.00000(cons'd)      0.00033         *
 * P               5      0.00000(cons'd)     -0.00000(cons'd)     -0.00071         *
 * P               6      0.00000(cons'd)     -0.00000(cons'd)      0.00013         *
 * P               7      0.00000(cons'd)      0.00000(cons'd)     -0.00037         *
 * P               8      0.00000(cons'd)     -0.00000(cons'd)     -0.00070         *
 * P               9      0.00000(cons'd)      0.00000(cons'd)     -0.00165         *
 * P              10      0.00000(cons'd)      0.00000(cons'd)     -0.00165         *
 * P              11      0.00000(cons'd)      0.00000(cons'd)      0.00013         *
 * P              12      0.00000(cons'd)      0.00000(cons'd)     -0.00037         *
 * In              1      0.00000(cons'd)      0.00000(cons'd)      0.00093         *
 * In              2      0.00000(cons'd)      0.00000(cons'd)      0.00119         *
 * In              3      0.00000(cons'd)      0.00000(cons'd)      0.00093         *
 * In              4      0.00000(cons'd)      0.00000(cons'd)     -0.00040         *
 * In              5      0.00000(cons'd)      0.00000(cons'd)      0.00063         *
 * In              6      0.00000(cons'd)      0.00000(cons'd)      0.00062         *
 * In              7      0.00000(cons'd)      0.00000(cons'd)     -0.00040         *
 * In              8      0.00000(cons'd)      0.00000(cons'd)      0.00119         *
 * In              9      0.00000(cons'd)      0.00000(cons'd)      0.00007         *
 * In             10      0.00000(cons'd)      0.00000(cons'd)      0.00037         *
 * In             11      0.00000(cons'd)      0.00000(cons'd)      0.00037         *
 * In             12      0.00000(cons'd)      0.00000(cons'd)      0.00006         *
 *                                                                                  *
 ************************************************************************************
  
 +------------+-------------+-------------+-----------------+ <-- min LBFGS
 |    Step    |   lambda    |   F.delta'  |    enthalpy     | <-- min LBFGS
 +------------+-------------+-------------+-----------------+ <-- min LBFGS
 |  previous  |    0.000000 |    0.007815 |   -23574.686829 | <-- min LBFGS
 | trial step |    1.000000 |   -0.001786 |   -23574.686847 | <-- min LBFGS
 +------------+-------------+-------------+-----------------+ <-- min LBFGS
  
 LBFGS: finished iteration     3 with enthalpy= -2.35746868E+004 eV
  
 +-----------+-----------------+-----------------+------------+-----+ <-- LBFGS
 | Parameter |      value      |    tolerance    |    units   | OK? | <-- LBFGS
 +-----------+-----------------+-----------------+------------+-----+ <-- LBFGS
 |  dE/ion   |   7.418385E-007 |   2.000000E-005 |         eV | Yes | <-- LBFGS
 |  |F|max   |   1.650775E-003 |   1.000000E-003 |       eV/A | No  | <-- LBFGS
 |  |dR|max  |   1.130596E-003 |   1.000000E-003 |          A | No  | <-- LBFGS
 +-----------+-----------------+-----------------+------------+-----+ <-- LBFGS
  

================================================================================
 Starting LBFGS iteration          4 ...
================================================================================
  
 +------------+-------------+-------------+-----------------+ <-- min LBFGS
 |    Step    |   lambda    |   F.delta'  |    enthalpy     | <-- min LBFGS
 +------------+-------------+-------------+-----------------+ <-- min LBFGS
 |  previous  |    0.000000 |    0.001591 |   -23574.686847 | <-- min LBFGS
 +------------+-------------+-------------+-----------------+ <-- min LBFGS
  

--------------------------------------------------------------------------------
 LBFGS: starting iteration         4 with trial guess (lambda=  1.000000)
--------------------------------------------------------------------------------

                           -------------------------------
                                     Cell Contents
                           -------------------------------

            xxxxxxxxxxxxxxxxxxxxxxxxxxxxxxxxxxxxxxxxxxxxxxxxxxxxxxxxxxxxxxxxx
            x  Element         Atom        Fractional coordinates of atoms  x
            x                 Number           u          v          w      x
            x---------------------------------------------------------------x
            x  P                 1         0.250000   0.331713   0.906289   x
            x  P                 2         0.250000  -0.090937   0.738696   x
            x  P                 3         0.750000   0.409063   0.738696   x
            x  P                 4         0.750000  -0.168287   0.906289   x
            x  P                 5         0.750000   0.130594   0.258713   x
            x  P                 6         0.750000   0.556758   0.418690   x
            x  P                 7         0.750000  -0.017114   0.578747   x
            x  P                 8         0.250000   0.630594   0.258713   x
            x  P                 9         0.250000   0.205074   0.097339   x
            x  P                10         0.750000   0.705074   0.097339   x
            x  P                11         0.250000   0.056758   0.418690   x
            x  P                12         0.250000   0.482886   0.578747   x
            x  In                1         0.000000   0.122090   0.818804   x
            x  In                2         0.500000   0.195913   0.658855   x
            x  In                3         0.500000  -0.377910   0.818804   x
            x  In                4         0.500000  -0.082546   0.178850   x
            x  In                5         0.500000   0.496493   0.007598   x
            x  In                6         0.000000  -0.003507   0.007598   x
            x  In                7         0.000000   0.417454   0.178850   x
            x  In                8         0.000000  -0.304087   0.658855   x
            x  In                9         0.500000  -0.230197   0.498759   x
            x  In               10         0.500000   0.343696   0.338659   x
            x  In               11         0.000000  -0.156304   0.338659   x
            x  In               12         0.000000   0.269803   0.498759   x
            xxxxxxxxxxxxxxxxxxxxxxxxxxxxxxxxxxxxxxxxxxxxxxxxxxxxxxxxxxxxxxxxx


------------------------------------------------------------------------ <-- SCF
SCF loop      Energy           Fermi           Energy gain       Timer   <-- SCF
                               energy          per atom          (sec)   <-- SCF
------------------------------------------------------------------------ <-- SCF
Initial  -2.35746017E+004  0.00000000E+000                       639.12  <-- SCF
      1  -2.35746868E+004  3.56093436E+000   3.54816005E-003     649.44  <-- SCF
      2  -2.35746868E+004  3.56093436E+000   1.85550781E-007     660.68  <-- SCF
      3  -2.35746868E+004  3.56096534E+000   2.31386627E-009     668.19  <-- SCF
      4  -2.35746868E+004  3.56096558E+000   1.64101340E-009     675.72  <-- SCF
------------------------------------------------------------------------ <-- SCF
 
Final energy, E             =  -23574.60262750     eV
Final free energy (E-TS)    =  -23574.68684735     eV
(energies not corrected for finite basis set)
 
NB est. 0K energy (E-0.5TS)      =  -23574.64473743     eV
 

 ******************************** Constrained Forces ********************************
 *                                                                                  *
 *                           Cartesian components (eV/A)                            *
 * -------------------------------------------------------------------------------- *
 *                         x                    y                    z              *
 *                                                                                  *
 * P               1      0.00000(cons'd)      0.00000(cons'd)      0.00012         *
 * P               2      0.00000(cons'd)      0.00000(cons'd)      0.00016         *
 * P               3      0.00000(cons'd)      0.00000(cons'd)      0.00016         *
 * P               4      0.00000(cons'd)      0.00000(cons'd)      0.00012         *
 * P               5     -0.00000(cons'd)     -0.00000(cons'd)     -0.00008         *
 * P               6      0.00000(cons'd)     -0.00000(cons'd)      0.00013         *
 * P               7      0.00000(cons'd)      0.00000(cons'd)      0.00016         *
 * P               8     -0.00000(cons'd)     -0.00000(cons'd)     -0.00008         *
 * P               9      0.00000(cons'd)     -0.00000(cons'd)     -0.00014         *
 * P              10      0.00000(cons'd)      0.00000(cons'd)     -0.00014         *
 * P              11      0.00000(cons'd)      0.00000(cons'd)      0.00013         *
 * P              12      0.00000(cons'd)      0.00000(cons'd)      0.00016         *
 * In              1      0.00000(cons'd)      0.00000(cons'd)     -0.00093         *
 * In              2      0.00000(cons'd)      0.00000(cons'd)     -0.00077         *
 * In              3      0.00000(cons'd)      0.00000(cons'd)     -0.00093         *
 * In              4      0.00000(cons'd)      0.00000(cons'd)      0.00110         *
 * In              5      0.00000(cons'd)      0.00000(cons'd)     -0.00004         *
 * In              6      0.00000(cons'd)      0.00000(cons'd)     -0.00003         *
 * In              7      0.00000(cons'd)      0.00000(cons'd)      0.00110         *
 * In              8      0.00000(cons'd)      0.00000(cons'd)     -0.00077         *
 * In              9      0.00000(cons'd)      0.00000(cons'd)     -0.00001         *
 * In             10      0.00000(cons'd)      0.00000(cons'd)      0.00029         *
 * In             11      0.00000(cons'd)      0.00000(cons'd)      0.00029         *
 * In             12      0.00000(cons'd)      0.00000(cons'd)     -0.00001         *
 *                                                                                  *
 ************************************************************************************
  
 +------------+-------------+-------------+-----------------+ <-- min LBFGS
 |    Step    |   lambda    |   F.delta'  |    enthalpy     | <-- min LBFGS
 +------------+-------------+-------------+-----------------+ <-- min LBFGS
 |  previous  |    0.000000 |    0.001591 |   -23574.686847 | <-- min LBFGS
 | trial step |    1.000000 |   -0.000786 |   -23574.686847 | <-- min LBFGS
 +------------+-------------+-------------+-----------------+ <-- min LBFGS
  
 LBFGS: finished iteration     4 with enthalpy= -2.35746868E+004 eV
  
 +-----------+-----------------+-----------------+------------+-----+ <-- LBFGS
 | Parameter |      value      |    tolerance    |    units   | OK? | <-- LBFGS
 +-----------+-----------------+-----------------+------------+-----+ <-- LBFGS
 |  dE/ion   |   5.094734E-009 |   2.000000E-005 |         eV | Yes | <-- LBFGS
 |  |F|max   |   1.102801E-003 |   1.000000E-003 |       eV/A | No  | <-- LBFGS
 |  |dR|max  |   2.586751E-004 |   1.000000E-003 |          A | Yes | <-- LBFGS
 +-----------+-----------------+-----------------+------------+-----+ <-- LBFGS
  

================================================================================
 Starting LBFGS iteration          5 ...
================================================================================
  
 +------------+-------------+-------------+-----------------+ <-- min LBFGS
 |    Step    |   lambda    |   F.delta'  |    enthalpy     | <-- min LBFGS
 +------------+-------------+-------------+-----------------+ <-- min LBFGS
 |  previous  |    0.000000 |    0.001004 |   -23574.686847 | <-- min LBFGS
 +------------+-------------+-------------+-----------------+ <-- min LBFGS
  

--------------------------------------------------------------------------------
 LBFGS: starting iteration         5 with trial guess (lambda=  1.000000)
--------------------------------------------------------------------------------

                           -------------------------------
                                     Cell Contents
                           -------------------------------

            xxxxxxxxxxxxxxxxxxxxxxxxxxxxxxxxxxxxxxxxxxxxxxxxxxxxxxxxxxxxxxxxx
            x  Element         Atom        Fractional coordinates of atoms  x
            x                 Number           u          v          w      x
            x---------------------------------------------------------------x
            x  P                 1         0.250000   0.331714   0.906287   x
            x  P                 2         0.250000  -0.090935   0.738692   x
            x  P                 3         0.750000   0.409065   0.738692   x
            x  P                 4         0.750000  -0.168286   0.906287   x
            x  P                 5         0.750000   0.130592   0.258717   x
            x  P                 6         0.750000   0.556757   0.418693   x
            x  P                 7         0.750000  -0.017113   0.578745   x
            x  P                 8         0.250000   0.630592   0.258717   x
            x  P                 9         0.250000   0.205074   0.097339   x
            x  P                10         0.750000   0.705074   0.097339   x
            x  P                11         0.250000   0.056757   0.418693   x
            x  P                12         0.250000   0.482887   0.578745   x
            x  In                1         0.000000   0.122093   0.818799   x
            x  In                2         0.500000   0.195915   0.658851   x
            x  In                3         0.500000  -0.377907   0.818799   x
            x  In                4         0.500000  -0.082549   0.178856   x
            x  In                5         0.500000   0.496493   0.007598   x
            x  In                6         0.000000  -0.003507   0.007598   x
            x  In                7         0.000000   0.417451   0.178856   x
            x  In                8         0.000000  -0.304085   0.658851   x
            x  In                9         0.500000  -0.230197   0.498760   x
            x  In               10         0.500000   0.343694   0.338664   x
            x  In               11         0.000000  -0.156306   0.338664   x
            x  In               12         0.000000   0.269803   0.498760   x
            xxxxxxxxxxxxxxxxxxxxxxxxxxxxxxxxxxxxxxxxxxxxxxxxxxxxxxxxxxxxxxxxx


------------------------------------------------------------------------ <-- SCF
SCF loop      Energy           Fermi           Energy gain       Timer   <-- SCF
                               energy          per atom          (sec)   <-- SCF
------------------------------------------------------------------------ <-- SCF
Initial  -2.35746031E+004  0.00000000E+000                       684.42  <-- SCF
      1  -2.35746868E+004  3.56101872E+000   3.48845732E-003     694.74  <-- SCF
      2  -2.35746868E+004  3.56101872E+000   4.75985403E-008     704.30  <-- SCF
      3  -2.35746868E+004  3.56102799E+000   7.66175762E-010     711.85  <-- SCF
      4  -2.35746868E+004  3.56104679E+000   2.84480132E-010     719.37  <-- SCF
------------------------------------------------------------------------ <-- SCF
 
Final energy, E             =  -23574.60261695     eV
Final free energy (E-TS)    =  -23574.68684751     eV
(energies not corrected for finite basis set)
 
NB est. 0K energy (E-0.5TS)      =  -23574.64473223     eV
 

 ******************************** Constrained Forces ********************************
 *                                                                                  *
 *                           Cartesian components (eV/A)                            *
 * -------------------------------------------------------------------------------- *
 *                         x                    y                    z              *
 *                                                                                  *
 * P               1      0.00000(cons'd)      0.00000(cons'd)     -0.00025         *
 * P               2      0.00000(cons'd)      0.00000(cons'd)     -0.00020         *
 * P               3      0.00000(cons'd)      0.00000(cons'd)     -0.00020         *
 * P               4      0.00000(cons'd)      0.00000(cons'd)     -0.00025         *
 * P               5     -0.00000(cons'd)     -0.00000(cons'd)      0.00044         *
 * P               6      0.00000(cons'd)      0.00000(cons'd)      0.00000         *
 * P               7      0.00000(cons'd)      0.00000(cons'd)     -0.00014         *
 * P               8     -0.00000(cons'd)     -0.00000(cons'd)      0.00044         *
 * P               9     -0.00000(cons'd)      0.00000(cons'd)      0.00054         *
 * P              10     -0.00000(cons'd)     -0.00000(cons'd)      0.00054         *
 * P              11      0.00000(cons'd)      0.00000(cons'd)      0.00000         *
 * P              12      0.00000(cons'd)      0.00000(cons'd)     -0.00014         *
 * In              1      0.00000(cons'd)      0.00000(cons'd)      0.00049         *
 * In              2      0.00000(cons'd)      0.00000(cons'd)      0.00028         *
 * In              3      0.00000(cons'd)      0.00000(cons'd)      0.00049         *
 * In              4      0.00000(cons'd)      0.00000(cons'd)     -0.00068         *
 * In              5      0.00000(cons'd)      0.00000(cons'd)     -0.00010         *
 * In              6      0.00000(cons'd)      0.00000(cons'd)     -0.00012         *
 * In              7      0.00000(cons'd)      0.00000(cons'd)     -0.00068         *
 * In              8      0.00000(cons'd)      0.00000(cons'd)      0.00028         *
 * In              9      0.00000(cons'd)      0.00000(cons'd)      0.00012         *
 * In             10      0.00000(cons'd)      0.00000(cons'd)     -0.00048         *
 * In             11      0.00000(cons'd)      0.00000(cons'd)     -0.00048         *
 * In             12      0.00000(cons'd)      0.00000(cons'd)      0.00012         *
 *                                                                                  *
 ************************************************************************************
  
 +------------+-------------+-------------+-----------------+ <-- min LBFGS
 |    Step    |   lambda    |   F.delta'  |    enthalpy     | <-- min LBFGS
 +------------+-------------+-------------+-----------------+ <-- min LBFGS
 |  previous  |    0.000000 |    0.001004 |   -23574.686847 | <-- min LBFGS
 | trial step |    1.000000 |   -0.000423 |   -23574.686848 | <-- min LBFGS
 +------------+-------------+-------------+-----------------+ <-- min LBFGS
  
 LBFGS: finished iteration     5 with enthalpy= -2.35746868E+004 eV
  
[...]


 LBFGS: Final Enthalpy     = -2.35746868E+004 eV
 LBFGS: Final <frequency>  =     328.24864 cm-1

 ******************* Unconstrained Forces *******************
 *                                                          *
 *               Cartesian components (eV/A)                *
 * -------------------------------------------------------- *
 *                         x            y            z      *
 *                                                          *
 * P               1      0.20897      0.32723     -0.00025 *
 * P               2      0.09301      0.09194     -0.00020 *
 * P               3      0.09301      0.09194     -0.00020 *
 * P               4      0.20897      0.32723     -0.00025 *
 * P               5     -0.00806     -0.02089      0.00044 *
 * P               6      0.00106     -0.00113      0.00000 *
 * P               7      0.01609      0.01602     -0.00014 *
 * P               8     -0.00806     -0.02089      0.00044 *
 * P               9     -0.05453     -0.11398      0.00054 *
 * P              10     -0.05454     -0.11399      0.00054 *
 * P              11      0.00106     -0.00113      0.00000 *
 * P              12      0.01609      0.01602     -0.00014 *
 * In              1     -0.14218     -0.16095      0.00049 *
 * In              2     -0.02251     -0.02440      0.00028 *
 * In              3     -0.14218     -0.16095      0.00049 *
 * In              4     -0.05496     -0.03683     -0.00068 *
 * In              5     -0.02248     -0.06489     -0.00010 *
 * In              6     -0.02248     -0.06489     -0.00012 *
 * In              7     -0.05496     -0.03683     -0.00068 *
 * In              8     -0.02251     -0.02440      0.00028 *
 * In              9     -0.00508     -0.00534      0.00012 *
 * In             10     -0.00932     -0.00677     -0.00048 *
 * In             11     -0.00932     -0.00677     -0.00048 *
 * In             12     -0.00508     -0.00534      0.00012 *
 *                                                          *
 ************************************************************

 ******************************** Constrained Forces ********************************
 *                                                                                  *
 *                           Cartesian components (eV/A)                            *
 * -------------------------------------------------------------------------------- *
 *                         x                    y                    z              *
 *                                                                                  *
 * P               1      0.00000(cons'd)      0.00000(cons'd)     -0.00025         *
 * P               2      0.00000(cons'd)      0.00000(cons'd)     -0.00020         *
 * P               3      0.00000(cons'd)      0.00000(cons'd)     -0.00020         *
 * P               4      0.00000(cons'd)      0.00000(cons'd)     -0.00025         *
 * P               5     -0.00000(cons'd)     -0.00000(cons'd)      0.00044         *
 * P               6      0.00000(cons'd)      0.00000(cons'd)      0.00000         *
 * P               7      0.00000(cons'd)      0.00000(cons'd)     -0.00014         *
 * P               8     -0.00000(cons'd)     -0.00000(cons'd)      0.00044         *
 * P               9     -0.00000(cons'd)      0.00000(cons'd)      0.00054         *
 * P              10     -0.00000(cons'd)     -0.00000(cons'd)      0.00054         *
 * P              11      0.00000(cons'd)      0.00000(cons'd)      0.00000         *
 * P              12      0.00000(cons'd)      0.00000(cons'd)     -0.00014         *
 * In              1      0.00000(cons'd)      0.00000(cons'd)      0.00049         *
 * In              2      0.00000(cons'd)      0.00000(cons'd)      0.00028         *
 * In              3      0.00000(cons'd)      0.00000(cons'd)      0.00049         *
 * In              4      0.00000(cons'd)      0.00000(cons'd)     -0.00068         *
 * In              5      0.00000(cons'd)      0.00000(cons'd)     -0.00010         *
 * In              6      0.00000(cons'd)      0.00000(cons'd)     -0.00012         *
 * In              7      0.00000(cons'd)      0.00000(cons'd)     -0.00068         *
 * In              8      0.00000(cons'd)      0.00000(cons'd)      0.00028         *
 * In              9      0.00000(cons'd)      0.00000(cons'd)      0.00012         *
 * In             10      0.00000(cons'd)      0.00000(cons'd)     -0.00048         *
 * In             11      0.00000(cons'd)      0.00000(cons'd)     -0.00048         *
 * In             12      0.00000(cons'd)      0.00000(cons'd)      0.00012         *
 *                                                                                  *
 ************************************************************************************

 Pseudo atomic calculation performed for P 3s2 3p3

 Converged in 23 iterations to a total energy of -208.0292 eV

 Pseudo atomic calculation performed for In 4d10 5s2 5p1

 Converged in 42 iterations to a total energy of -1747.4500 eV
Charge spilling parameter for spin component 1 = 0.21%

            Orbital Populations       
     Ion    Atom   Orbital             Charge
  -------------------------------------------
      P     1      S                    1.781
      P     1      Px                   1.307
      P     1      Py                   1.317
      P     1      Pz                   1.282
      P     2      S                    1.732
      P     2      Px                   1.312
      P     2      Py                   1.312
      P     2      Pz                   1.316
      P     3      S                    1.732
      P     3      Px                   1.312
      P     3      Py                   1.312
      P     3      Pz                   1.316
      P     4      S                    1.781
      P     4      Px                   1.307
      P     4      Py                   1.317
      P     4      Pz                   1.282
      P     5      S                    1.726
      P     5      Px                   1.317
      P     5      Py                   1.317
      P     5      Pz                   1.319
      P     6      S                    1.724
      P     6      Px                   1.317
      P     6      Py                   1.317
      P     6      Pz                   1.325
      P     7      S                    1.724
      P     7      Px                   1.316
      P     7      Py                   1.317
      P     7      Pz                   1.325
      P     8      S                    1.726
      P     8      Px                   1.317
      P     8      Py                   1.317
      P     8      Pz                   1.319
      P     9      S                    1.765
      P     9      Px                   1.264
      P     9      Py                   1.264
      P     9      Pz                   1.314
      P    10      S                    1.765
      P    10      Px                   1.264
      P    10      Py                   1.264
      P    10      Pz                   1.314
      P    11      S                    1.724
      P    11      Px                   1.317
      P    11      Py                   1.317
      P    11      Pz                   1.325
      P    12      S                    1.724
      P    12      Px                   1.316
      P    12      Py                   1.317
      P    12      Pz                   1.325
     In     1      Dzz                  1.999
     In     1      Dzy                  1.997
     In     1      Dzx                  1.997
     In     1      Dxx-yy               1.999
     In     1      Dxy                  1.997
     In     1      S                    1.430
     In     1      Px                   0.484
     In     1      Py                   0.482
     In     1      Pz                   0.433
     In     1      S                   -0.466
     In     2      Dzz                  1.999
     In     2      Dzy                  1.997
     In     2      Dzx                  1.997
     In     2      Dxx-yy               1.999
     In     2      Dxy                  1.996
     In     2      S                    1.442
     In     2      Px                   0.497
     In     2      Py                   0.497
     In     2      Pz                   0.471
     In     2      S                   -0.595
     In     3      Dzz                  1.999
     In     3      Dzy                  1.997
     In     3      Dzx                  1.997
     In     3      Dxx-yy               1.999
     In     3      Dxy                  1.997
     In     3      S                    1.430
     In     3      Px                   0.484
     In     3      Py                   0.482
     In     3      Pz                   0.433
     In     3      S                   -0.466
     In     4      Dzz                  1.999
     In     4      Dzy                  1.997
     In     4      Dzx                  1.997
     In     4      Dxx-yy               1.999
     In     4      Dxy                  1.997
     In     4      S                    1.443
     In     4      Px                   0.504
     In     4      Py                   0.504
     In     4      Pz                   0.467
     In     4      S                   -0.506
     In     5      Dzz                  1.999
     In     5      Dzy                  1.998
     In     5      Dzx                  1.998
     In     5      Dxx-yy               2.000
     In     5      Dxy                  1.996
     In     5      S                    1.446
     In     5      Px                   0.449
     In     5      Py                   0.447
     In     5      Pz                   0.469
     In     5      S                   -0.450
     In     6      Dzz                  1.999
     In     6      Dzy                  1.998
     In     6      Dzx                  1.998
     In     6      Dxx-yy               2.000
     In     6      Dxy                  1.996
     In     6      S                    1.446
     In     6      Px                   0.449
     In     6      Py                   0.447
     In     6      Pz                   0.469
     In     6      S                   -0.450
     In     7      Dzz                  1.999
     In     7      Dzy                  1.997
     In     7      Dzx                  1.997
     In     7      Dxx-yy               1.999
     In     7      Dxy                  1.997
     In     7      S                    1.443
     In     7      Px                   0.504
     In     7      Py                   0.504
     In     7      Pz                   0.467
     In     7      S                   -0.506
     In     8      Dzz                  1.999
     In     8      Dzy                  1.997
     In     8      Dzx                  1.997
     In     8      Dxx-yy               1.999
     In     8      Dxy                  1.996
     In     8      S                    1.442
     In     8      Px                   0.497
     In     8      Py                   0.497
     In     8      Pz                   0.471
     In     8      S                   -0.595
     In     9      Dzz                  1.999
     In     9      Dzy                  1.997
     In     9      Dzx                  1.997
     In     9      Dxx-yy               1.999
     In     9      Dxy                  1.996
     In     9      S                    1.436
     In     9      Px                   0.493
     In     9      Py                   0.493
     In     9      Pz                   0.473
     In     9      S                   -0.584
     In    10      Dzz                  1.999
     In    10      Dzy                  1.997
     In    10      Dzx                  1.997
     In    10      Dxx-yy               1.999
     In    10      Dxy                  1.996
     In    10      S                    1.442
     In    10      Px                   0.492
     In    10      Py                   0.493
     In    10      Pz                   0.471
     In    10      S                   -0.604
     In    11      Dzz                  1.999
     In    11      Dzy                  1.997
     In    11      Dzx                  1.997
     In    11      Dxx-yy               1.999
     In    11      Dxy                  1.996
     In    11      S                    1.442
     In    11      Px                   0.492
     In    11      Py                   0.493
     In    11      Pz                   0.471
     In    11      S                   -0.604
     In    12      Dzz                  1.999
     In    12      Dzy                  1.997
     In    12      Dzx                  1.997
     In    12      Dxx-yy               1.999
     In    12      Dxy                  1.996
     In    12      S                    1.436
     In    12      Px                   0.493
     In    12      Py                   0.493
     In    12      Pz                   0.473
     In    12      S                   -0.584
  -------------------------------------------
                           Total:     216.000
  -------------------------------------------

     Atomic Populations (Mulliken)
     -----------------------------
Species          Ion     s       p       d       f      Total   Charge (e)
==========================================================================
  P               1     1.781   3.906   0.000   0.000   5.687    -0.687
  P               2     1.732   3.940   0.000   0.000   5.672    -0.672
  P               3     1.732   3.940   0.000   0.000   5.672    -0.672
  P               4     1.781   3.906   0.000   0.000   5.687    -0.687
  P               5     1.726   3.953   0.000   0.000   5.679    -0.679
  P               6     1.724   3.960   0.000   0.000   5.684    -0.684
  P               7     1.724   3.958   0.000   0.000   5.682    -0.682
  P               8     1.726   3.953   0.000   0.000   5.679    -0.679
  P               9     1.765   3.842   0.000   0.000   5.607    -0.607
  P              10     1.765   3.842   0.000   0.000   5.607    -0.607
  P              11     1.724   3.960   0.000   0.000   5.684    -0.684
  P              12     1.724   3.958   0.000   0.000   5.682    -0.682
  In              1     0.965   1.399   9.989   0.000  12.353     0.647
  In              2     0.847   1.465   9.987   0.000  12.300     0.700
  In              3     0.965   1.399   9.989   0.000  12.353     0.647
  In              4     0.937   1.476   9.988   0.000  12.400     0.600
  In              5     0.996   1.366   9.992   0.000  12.353     0.647
  In              6     0.996   1.366   9.992   0.000  12.353     0.647
  In              7     0.937   1.476   9.988   0.000  12.400     0.600
  In              8     0.847   1.465   9.987   0.000  12.300     0.700
  In              9     0.852   1.460   9.988   0.000  12.300     0.700
  In             10     0.839   1.456   9.988   0.000  12.283     0.717
  In             11     0.839   1.456   9.988   0.000  12.283     0.717
  In             12     0.852   1.460   9.988   0.000  12.300     0.700
==========================================================================

                 Bond                   Population      Length (A)
======================================================================
              P 2  -- In 8                   0.57        2.52013
              P 3  -- In 2                   0.57        2.52013
              P 3  -- In 8                   0.59        2.52013
              P 2  -- In 2                   0.59        2.52013
              P 5  -- In 4                   0.56        2.52033
              P 8  -- In 7                   0.56        2.52033
              P 5  -- In 7                   0.56        2.52034
              P 8  -- In 4                   0.56        2.52034
              P 8  -- In 10                  0.61        2.52118
              P 8  -- In 11                  0.61        2.52118
              P 5  -- In 10                  0.61        2.52118
              P 5  -- In 11                  0.61        2.52118
              P 12 -- In 12                  0.60        2.52157
              P 7  -- In 9                   0.60        2.52157
              P 7  -- In 12                  0.59        2.52158
              P 12 -- In 9                   0.59        2.52158
              P 11 -- In 11                  0.59        2.52200
              P 6  -- In 10                  0.59        2.52200
              P 6  -- In 11                  0.59        2.52201
              P 11 -- In 10                  0.59        2.52201
              P 6  -- In 9                   0.59        2.52238
              P 11 -- In 9                   0.59        2.52238
              P 6  -- In 12                  0.59        2.52238
              P 11 -- In 12                  0.59        2.52238
              P 7  -- In 2                   0.60        2.52277
              P 7  -- In 8                   0.59        2.52277
              P 12 -- In 2                   0.59        2.52277
              P 12 -- In 8                   0.60        2.52277
              P 3  -- In 3                   0.56        2.52278
              P 2  -- In 3                   0.57        2.52278
              P 3  -- In 1                   0.57        2.52278
              P 2  -- In 1                   0.56        2.52278
              P 10 -- In 4                   0.57        2.53689
              P 10 -- In 7                   0.56        2.53689
              P 9  -- In 4                   0.56        2.53690
              P 9  -- In 7                   0.57        2.53690
              P 1  -- In 1                   0.52        2.59848
              P 4  -- In 3                   0.52        2.59849
              P 1  -- In 3                   0.53        2.59849
              P 4  -- In 1                   0.53        2.59849
              P 9  -- In 6                   0.53        2.62246
              P 10 -- In 6                   0.48        2.62246
              P 10 -- In 5                   0.53        2.62246
              P 9  -- In 5                   0.48        2.62247
              P 1  -- In 5                   0.59        2.63665
              P 4  -- In 6                   0.59        2.63665
              P 4  -- In 5                   0.24        2.87947
              P 1  -- In 6                   0.24        2.87947
======================================================================


     Hirshfeld Analysis
     ------------------
Species   Ion     Hirshfeld Charge (e)
======================================
  P        1                -0.29
  P        2                -0.23
  P        3                -0.23
  P        4                -0.29
  P        5                -0.24
  P        6                -0.24
  P        7                -0.24
  P        8                -0.24
  P        9                -0.23
  P       10                -0.23
  P       11                -0.24
  P       12                -0.24
  In       1                 0.24
  In       2                 0.24
  In       3                 0.24
  In       4                 0.22
  In       5                 0.29
  In       6                 0.29
  In       7                 0.22
  In       8                 0.24
  In       9                 0.24
  In      10                 0.24
  In      11                 0.24
  In      12                 0.24
======================================

 
 A BibTeX formatted list of references used in this run has been written to 
 StackingFaultStructs_(0_0_1)_(1_0_0)_4.bib
 
Initialisation time =     20.05 s
Calculation time    =    714.12 s
Finalisation time   =      0.92 s
Total time          =    735.09 s
Peak Memory Use     = 2176756 kB
 
Overall parallel efficiency rating: Mediocre (56%)
 
Data was distributed by:-
G-vector (6-way); efficiency rating: Satisfactory (60%)
k-point (40-way); efficiency rating: Very good (88%)
