96
Lattice="14.45404925834546 20.441112492360922 0.0 14.45404925834546 -20.441112492360922 0.0 -2.220446049250313e-16 0.0 4.1725246150929305" Properties=species:S:1:pos:R:3 core_positions="_JSON [[7.227024629172732, 0.0, 2.0862623075464652], [21.68107388751819, 0.0, 2.0862623075464652]]" burgers_vectors="_JSON [[-0.9834734833333334, 1.9669469666666668, -0.9834734833333334], [0.9834734833333334, -1.9669469666666668, 0.9834734833333334]]" dislocation_types="_JSON [\"1/6<112> 30 degree partial\", \"1/6<112> 30 degree partial\"]" dislocation_classes="_JSON [\"<class 'matscipy.dislocation.DiamondGlide30degreePartial'>\", \"<class 'matscipy.dislocation.DiamondGlide30degreePartial'>\"]" energy=-94315.45577649951 pbc="T T T"
In       9.87316674      -2.95781119       3.66641591
P       10.25886254      -0.43109384       3.11060788
In       6.15556205      -2.98007442       1.96899773
P        5.95350628      -0.41822028       2.10023120
In       8.13971916       0.68056268       2.49562407
P        8.27266136       3.15419652       2.25547040
In      11.51578761       0.49403913       0.97261752
P       11.82441966       2.99995762       0.43146038
In       7.04724203       3.96326008       0.15010162
P        7.14551900       6.48466147       0.08671852
In      10.69819703       3.94396888       2.48722244
P       10.77188857       6.46667528       2.30200258
In       9.56839192       7.29297547       0.19246558
P        9.64532758       9.82257926       0.03060080
In       5.93443626       7.29514439       2.15593083
P       20.46493353     -10.61638487       2.02004888
In       8.43420473      10.63662960       2.09777284
P       22.96536285      -7.27584115       1.93203854
In      12.05655940      10.67515027       0.09388519
P       12.11368572      13.21768446      -0.01538090
In      21.75922008      -6.45673459       3.99479495
P       21.81423260      -3.93733909       3.88447051
In      10.90484744      14.05356558       2.05873085
P       25.38019445      -3.84326166       2.01834285
In      17.09972833      -2.98209461       3.66753390
P       17.37279411      -0.44535429       3.30918757
In      13.51063238      -2.98789852       1.52870019
P       13.83275983      -0.45394568       1.08106877
In      15.04383322       0.45851552       3.11928985
P       15.41051265       2.97471701       2.61881290
In      18.63652332       0.40989443       1.18551618
P       19.03042815       2.92002704       0.55254044
In      14.24074288       3.87389673       0.51374849
P       14.36192503       6.42056862       0.29288335
In      17.84934794       3.83012967       2.62912240
P       17.96679301       6.38186985       2.38033332
In      16.78645697       7.25704203       0.28177700
P       16.87756417       9.81165077       0.12107363
In      13.18796265       7.29730059       2.36027190
P       13.26180496       9.83679076       2.19563450
In      15.68212645      10.66950150       2.19772845
P       15.73948650      13.21958795       2.09470315
In      19.30196008      10.65701899       0.05953809
P       19.38116677      13.22544874      -0.03107622
In      14.52754831      14.06052907       0.00223365
P       14.53927798      16.60967045      -0.03329225
In      18.15926755      14.06336622       2.05518097
P        3.73229144      -3.81912975       2.02599423
In      24.17253894      -2.99256995       4.09608171
P       24.16115139      -0.45183010       4.28544171
In      20.64765190      -3.03258043       1.78627157
P       20.87558865      -0.63229195       1.08681659
In      22.84585266       0.35104029       2.26840350
P       22.74845063       2.91057446       2.38316969
In      26.52480097       0.40397810       4.16466121
P       26.39956925       2.95346215       0.11256356
In      21.48406429       3.70928469       0.32077161
P       21.57920047       6.29624608       0.16857119
In      25.16623256       3.77988037       2.21227940
P       10.74978567     -14.09928979       2.14527469
In       9.53565984     -13.24996110       4.23283345
P        9.62301826     -10.67651157       4.15181937
In      20.40168885       7.19649028       2.25485298
P       20.48450243       9.77040612       2.14810954
In       8.44041610      -9.78807878       2.06482886
P        8.53535771      -7.21569331       1.97540809
In      12.04019256      -9.82116567       4.06267106
P       12.14372652      -7.26333219       3.90166025
In       7.34776112      -6.33302530       4.06599427
P        7.43110518      -3.74517248       4.03059420
In      10.96283365      -6.38547350       1.80382210
P       11.07158468      -3.82821657       1.59771579
In       2.49663588      -2.99144919       4.11962146
P        2.37971645      -0.43663060       0.02330726
In      13.32515518      17.45271724       2.05202845
P       27.72490443      -0.43906896       2.07989556
In       1.19281727       0.42822614       2.11461251
P       15.56197881     -17.46328622       2.14340533
In       4.73593296       0.46306982       0.01820690
P        4.69807222       3.00935852       0.07090686
In      14.34546700     -16.62159226       4.23037400
P       14.37997211     -14.07126883       4.17754919
In       3.49416554       3.85302424       2.15230641
P       17.99869783     -14.04433621       2.09650907
In      16.78683528     -13.21134717       4.17238263
P       16.84988371     -10.66659976       4.05718420
In      13.16305612     -13.23486788       2.08682941
P       13.23618335     -10.67958283       1.98394467
In      15.64809974      -9.82427916       1.95760920
P       15.74051764      -7.27839383       1.78538550
In      19.25395134      -9.80060225       4.08809873
P       19.33872398      -7.26832738       3.92297361
In      14.56148623      -6.41022665       3.85337861
P       14.68180493      -3.86048970       3.64157842
In      18.14788070      -6.42344823       1.81475698
P       18.24319258      -3.89016151       1.61804447
96
Lattice="14.45404925834546 20.441112492360922 0.0 14.45404925834546 -20.441112492360922 0.0 -2.220446049250313e-16 0.0 4.1725246150929305" Properties=species:S:1:pos:R:3 core_positions="_JSON [[7.227024629172732, 0.0, 2.0862623075464652], [21.68107388751819, 0.0, 2.0862623075464652]]" burgers_vectors="_JSON [[-0.9834734833333334, 1.9669469666666668, -0.9834734833333334], [0.9834734833333334, -1.9669469666666668, 0.9834734833333334]]" dislocation_types="_JSON [\"1/6<112> 30 degree partial\", \"1/6<112> 30 degree partial\"]" dislocation_classes="_JSON [\"<class 'matscipy.dislocation.DiamondGlide30degreePartial'>\", \"<class 'matscipy.dislocation.DiamondGlide30degreePartial'>\"]" energy=-94315.43118987052 pbc="T T T"
In       9.88916361      -2.94310052       3.65920907
P       10.26565824      -0.41534136       3.10279496
In       6.16960238      -2.96227542       1.97832728
P        5.95579641      -0.40132317       2.11677387
In       8.14269386       0.69831703       2.50279838
P        8.26531269       3.17276854       2.26400705
In      11.52092592       0.50842233       0.96593810
P       11.81564750       3.01820578       0.43733351
In       7.03940060       3.98248067       0.15851930
P        7.13832602       6.50405815       0.08654886
In      10.68997113       3.96273155       2.49272252
P       10.76546056       6.48552869       2.30010386
In       9.56119086       7.31394617       0.18925843
P        9.64360504       9.84354596       0.00966051
In       5.92663891       7.31537642       2.15532501
P       20.46469201     -10.59576622       2.00499143
In       8.43289088      10.66355854       2.07404326
P       22.97031648      -7.24810794       1.88765741
In      12.05798110      10.68724154       0.08954641
P       12.12480630      13.22836388      -0.02114485
In      21.76772036      -6.41686898       3.94654331
P       21.83878132      -3.89632129       3.75213738
In      10.91502400      14.06138754       2.05214451
P       25.39983711      -3.83824969       2.01197435
In      17.12054423      -2.96109390       3.61319836
P       17.37901370      -0.42340499       3.26528946
In      13.52887551      -2.97329944       1.49945376
P       13.84114046      -0.43647257       1.06224549
In      15.04442050       0.48034715       3.10223065
P       15.39834145       2.99891179       2.62998643
In      18.63293813       0.43114481       1.14439433
P       19.01019861       2.95133457       0.57788992
In      14.22943217       3.89388568       0.52430171
P       14.35733430       6.43931631       0.30195329
In      17.83452772       3.85496092       2.65275095
P       17.96006661       6.40556933       2.40749934
In      16.78107531       7.27956849       0.30684993
P       16.88096570       9.83250767       0.13564034
In      13.18250595       7.31356780       2.36802853
P       13.26460565       9.85157675       2.19331588
In      15.68478253      10.68754443       2.21020264
P       15.75005818      13.23640445       2.10073758
In      19.30641511      10.67885751       0.08937430
P       19.39270407      13.24626301      -0.01380543
In      14.53797556      14.07490495       0.00688866
P       14.55533862      16.62265996      -0.02700170
In      18.17002701      14.08226920       2.07149538
P        3.74599627      -3.80071994       2.03990054
In      24.20009712      -2.96478093       4.08935734
P       24.14854155      -0.44843473       4.46048466
In      20.67129524      -2.97633227       1.63084385
P       20.91057912      -0.53865322       1.00998058
In      22.70022954       0.32324051       2.53789260
P       22.71184558       2.90388532       2.48175511
In      26.50394316       0.39760279       4.21295358
P       26.38598270       2.95165572       0.16818265
In      21.47103420       3.73533168       0.41061135
P       21.57202657       6.31991723       0.23081834
In      25.13584430       3.75924830       2.27148713
P       10.73749206     -14.10977945       2.18900510
In       9.53374092     -13.24326921       4.27706684
P        9.62893613     -10.66759875       4.17896764
In      20.39599462       7.21930298       2.31392745
P       20.48850767       9.79165688       2.18020561
In       8.44797872      -9.77449472       2.09154445
P        8.54908316      -7.20114998       1.98905489
In      12.04618307      -9.80990608       4.07694321
P       12.15791917      -7.25107947       3.90252037
In       7.36169960      -6.31590416       4.07958329
P        7.44720258      -3.72723789       4.03880642
In      10.97719261      -6.37140487       1.80489788
P       11.08920512      -3.81388925       1.58934864
In       2.51006590      -2.97357156       4.13387020
P        2.38153391      -0.42032429       0.05582364
In      13.33973383      17.46294213       2.05835995
P       27.72528553      -0.43164542       2.12534223
In       1.19027411       0.44205531       2.14988772
P       15.55232780     -17.45037571       2.17806455
In       4.73733142       0.48055050       0.03581249
P        4.69057321       3.02688682       0.08920479
In      14.32973530     -16.61503352       4.26662166
P       14.37083365     -14.06332185       4.20351872
In       3.48423180       3.86920975       2.17143944
P       17.99088727     -14.02775360       2.10764455
In      16.77740531     -13.19612173       4.18392623
P       16.85190483     -10.65004413       4.05637051
In      13.14930914     -13.23291630       2.11319755
P       13.23829080     -10.67384327       1.99804994
In      15.64966191      -9.80901784       1.95707763
P       15.75401099      -7.26115000       1.76977925
In      19.25573337      -9.77643578       4.07247170
P       19.35072701      -7.24258007       3.88737885
In      14.57528418      -6.39303649       3.83806140
P       14.70236748      -3.84356224       3.61060128
In      18.16077330      -6.39809852       1.77866529
P       18.26768918      -3.86100233       1.55968558
96
Lattice="14.45404925834546 20.441112492360922 0.0 14.45404925834546 -20.441112492360922 0.0 -2.220446049250313e-16 0.0 4.1725246150929305" Properties=species:S:1:pos:R:3 core_positions="_JSON [[7.227024629172732, 0.0, 2.0862623075464652], [21.68107388751819, 0.0, 2.0862623075464652]]" burgers_vectors="_JSON [[-0.9834734833333334, 1.9669469666666668, -0.9834734833333334], [0.9834734833333334, -1.9669469666666668, 0.9834734833333334]]" dislocation_types="_JSON [\"1/6<112> 30 degree partial\", \"1/6<112> 30 degree partial\"]" dislocation_classes="_JSON [\"<class 'matscipy.dislocation.DiamondGlide30degreePartial'>\", \"<class 'matscipy.dislocation.DiamondGlide30degreePartial'>\"]" energy=-94315.36853673271 pbc="T T T"
In       9.89868969      -2.94422906       3.65506477
P       10.27821594      -0.41747096       3.10174489
In       6.17813839      -2.95930297       1.97240385
P        5.96892804      -0.39871285       2.10923240
In       8.15630538       0.69729848       2.50037946
P        8.26218375       3.17265937       2.26966640
In      11.53371910       0.50399307       0.96579383
P       11.81173714       3.01488886       0.44165113
In       7.03495005       3.98155539       0.16408224
P        7.13263788       6.50264418       0.08862507
In      10.68627325       3.95898299       2.49676088
P       10.76210511       6.48077786       2.29996446
In       9.55646618       7.30853349       0.18861543
P        9.64140329       9.83710415      -0.00142118
In       5.91988975       7.31406696       2.15727670
P       20.46132772     -10.59697552       2.00142591
In       8.43048089      10.66027461       2.06189200
P       22.97262192      -7.25156578       1.86268775
In      12.06066125      10.66571855       0.07429071
P       12.13706758      13.20366743      -0.05633270
In      21.77309449      -6.41352935       3.92060728
P       21.85704340      -3.89093378       3.68052600
In      10.92709993      14.03158475       2.01507475
P       25.42390532      -3.87505811       1.92176889
In      17.13543777      -2.95621491       3.59027110
P       17.40014001      -0.41828690       3.23938699
In      13.54026285      -2.97506423       1.49090844
P       13.85604946      -0.43781900       1.06290412
In      15.05646007       0.47836629       3.10463543
P       15.39119428       2.99809359       2.63685213
In      18.63428297       0.45087812       1.11654016
P       18.99366208       2.97346155       0.59733272
In      14.22323312       3.88900801       0.53040729
P       14.35659949       6.43257246       0.30354091
In      17.81700432       3.86927010       2.66962132
P       17.95289554       6.41796290       2.42089411
In      16.77435609       7.28909487       0.31814302
P       16.88037954       9.83982656       0.13510302
In      13.18092346       7.30192334       2.36866795
P       13.26909517       9.83723290       2.17970764
In      15.68352526      10.69042359       2.20765329
P       15.75445406      13.23766071       2.08365585
In      19.30274029      10.69603123       0.10162705
P       19.39569005      13.25970366      -0.01695737
In      14.54201434      14.07360665      -0.01267634
P       14.56617935      16.61980293      -0.05912706
In      18.17202721      14.09067514       2.06640268
P        3.75360555      -3.79438178       2.02515260
In      24.23607658      -2.97611444       3.98824936
P       24.17754880      -0.49977401       4.48701598
In      20.69742018      -2.97059962       1.55192838
P       20.94329860      -0.48241148       1.01823969
In      22.46729324       0.33126145       2.85259638
P       22.66464438       2.90742699       2.57640210
In      26.50189429       0.38011808       4.16687030
P       26.37380899       2.93551403       0.20766244
In      21.44905499       3.78149926       0.49895296
P       21.56094241       6.35463639       0.27501776
In      25.10653671       3.72698467       2.32024478
P       10.72338257     -14.13047226       2.21288996
In       9.53311836     -13.24178007       4.30137996
P        9.63088263     -10.66555242       4.19121482
In      20.38365171       7.24696676       2.35458734
P       20.48562628       9.81343310       2.19482339
In       8.45099332      -9.76931832       2.10325099
P        8.55557014      -7.19690074       1.99030369
In      12.04896431      -9.80989589       4.08263489
P       12.16614186      -7.25087775       3.90197149
In       7.36806510      -6.31126067       4.08007298
P        7.45559413      -3.72377353       4.03361069
In      10.98504826      -6.37105930       1.80417372
P       11.09977886      -3.81425246       1.58494235
In       2.51748531      -2.97055294       4.11721081
P        2.39657658      -0.41857991       0.04104688
In      13.34819522      17.45745850       2.02392307
P       27.74417321      -0.43717276       2.08382099
In       1.20339679       0.44001441       2.13522212
P       15.54438167     -17.45362931       2.19008590
In       4.75098413       0.48348984       0.02801055
P        4.68585934       3.02851598       0.09483646
In      14.31665826     -16.62191984       4.28117440
P       14.36091878     -14.06869889       4.21348702
In       3.47579821       3.86867914       2.17786282
P       17.98322556     -14.02827648       2.11232268
In      16.76812587     -13.19756919       4.18885270
P       16.84960264     -10.65060953       4.05732199
In      13.13482548     -13.24298350       2.12357530
P       13.23670293     -10.68006255       2.00376299
In      15.64828107      -9.80884410       1.95808956
P       15.76328844      -7.25905769       1.76560904
In      19.25363837      -9.77438912       4.06893667
P       19.35587732      -7.23912737       3.87367386
In      14.58425751      -6.39182748       3.83409575
P       14.71683207      -3.84198365       3.60079164
In      18.17027576      -6.38766490       1.76486819
P       18.28854065      -3.84722320       1.53406952
96
Lattice="14.45404925834546 20.441112492360922 0.0 14.45404925834546 -20.441112492360922 0.0 -2.220446049250313e-16 0.0 4.1725246150929305" Properties=species:S:1:pos:R:3 core_positions="_JSON [[7.227024629172732, 0.0, 2.0862623075464652], [21.68107388751819, 0.0, 2.0862623075464652]]" burgers_vectors="_JSON [[-0.9834734833333334, 1.9669469666666668, -0.9834734833333334], [0.9834734833333334, -1.9669469666666668, 0.9834734833333334]]" dislocation_types="_JSON [\"1/6<112> 30 degree partial\", \"1/6<112> 30 degree partial\"]" dislocation_classes="_JSON [\"<class 'matscipy.dislocation.DiamondGlide30degreePartial'>\", \"<class 'matscipy.dislocation.DiamondGlide30degreePartial'>\"]" energy=-94315.20650243878 pbc="T T T"
In       9.89953121      -2.94473164       3.65565654
P       10.28302878      -0.41884865       3.10282921
In       6.17927288      -2.95922413       1.97190566
P        5.97723773      -0.39834614       2.10785912
In       8.16354718       0.69764399       2.49883635
P        8.26114824       3.17306615       2.27160797
In      11.53764832       0.50254695       0.96695792
P       11.80975084       3.01320454       0.44278396
In       7.03366727       3.98165618       0.16607319
P        7.13088646       6.50216745       0.08986552
In      10.68486706       3.95749501       2.49785497
P       10.76110707       6.47850678       2.30038417
In       9.55499015       7.30553797       0.18900107
P        9.64017112       9.83310355      -0.00199476
In       5.91754619       7.31282219       2.15859504
P       20.45911064     -10.59842797       2.00243469
In       8.42855481      10.65591250       2.06129681
P       22.97152569      -7.25678167       1.86195705
In      12.06365957      10.64699120       0.06894294
P       12.14743694      13.17995175      -0.08286210
In      21.76958282      -6.42076385       3.92058876
P       21.85414546      -3.89879225       3.69040339
In      10.93746099      13.99906912       1.98596028
P       25.44264476      -3.91818532       1.86165620
In      17.13693347      -2.95657029       3.59241175
P       17.40816525      -0.41747445       3.23974955
In      13.54098973      -2.97589822       1.49285662
P       13.86014565      -0.43902230       1.06819932
In      15.05985473       0.47538321       3.11097202
P       15.38779754       2.99465403       2.63832631
In      18.62698091       0.46160867       1.11789785
P       18.98505371       2.98160371       0.60213624
In      14.22067243       3.88469510       0.53171182
P       14.35743082       6.42693982       0.30318895
In      17.80640792       3.87590635       2.67283940
P       17.95003430       6.42359537       2.42431579
In      16.77125049       7.29306322       0.32074856
P       16.87975871       9.84264717       0.13562909
In      13.18152160       7.29322599       2.36805844
P       13.27315322       9.82602278       2.17457289
In      15.68320877      10.69112957       2.20768576
P       15.75566462      13.23762037       2.08025527
In      19.29941630      10.70569208       0.10620135
P       19.39511117      13.26670424      -0.01776208
In      14.54345433      14.07339586      -0.01692517
P       14.56696638      16.61967607      -0.06302353
In      18.17099832      14.09483195       2.06480867
P        3.75441579      -3.79187215       2.02117768
In      24.25278234      -3.04892590       3.92056076
P       24.25844653      -0.57013068       4.17542529
In      20.71424723      -2.97271904       1.56489232
P       20.95249059      -0.46300680       1.05764442
In      22.29668148       0.39786550       3.00742597
P       22.63397689       2.94030096       2.62479572
In      26.54376737       0.40512690       4.17897525
P       26.36909449       2.94604456       0.24276996
In      21.42719031       3.82490390       0.54470287
P       21.55527224       6.38361787       0.29184255
In      25.09251718       3.71910762       2.35933641
P       10.71762995     -14.13529886       2.22694207
In       9.53512374     -13.23542687       4.31455390
P        9.63118459     -10.66084167       4.19669140
In      20.37558441       7.26739219       2.36961962
P       20.48287548       9.82824181       2.20029168
In       8.45146207      -9.76513097       2.10829435
P        8.55645847      -7.19404975       1.99178563
In      12.04990831      -9.80890096       4.08482653
P       12.16744607      -7.25028433       3.90268633
In       7.36886062      -6.30914122       4.08130003
P        7.45640535      -3.72259699       4.03343427
In      10.98626841      -6.37072399       1.80481915
P       11.10080426      -3.81438189       1.58557033
In       2.51792066      -2.97006158       4.11242258
P        2.41339501      -0.41832719       0.02202218
In      13.34827439      17.45683924       2.01870453
P       27.76658177      -0.43621771       2.08916562
In       1.22062563       0.43480680       2.11332797
P       15.54272312     -17.45767966       2.19800636
In       4.76409102       0.48647232       0.02690820
P        4.68495808       3.02996193       0.09752543
In      14.31805035     -16.61949143       4.29178670
P       14.35827726     -14.06826378       4.21699327
In       3.47286637       3.86828033       2.18076888
P       17.98062798     -14.02883372       2.11371902
In      16.76572558     -13.19742417       4.19027542
P       16.84784363     -10.65097219       4.05815904
In      13.12944925     -13.24544187       2.12734497
P       13.23606166     -10.68127756       2.00596686
In      15.64766963      -9.80827413       1.95887937
P       15.76559820      -7.25773858       1.76648752
In      19.25137777      -9.77559895       4.07005796
P       19.35279337      -7.24061480       3.87329633
In      14.58576282      -6.39228426       3.83511778
P       14.71838476      -3.84215258       3.60268223
In      18.17237649      -6.38050976       1.76444770
P       18.29857457      -3.83777467       1.53610647
96
Lattice="14.45404925834546 20.441112492360922 0.0 14.45404925834546 -20.441112492360922 0.0 -2.220446049250313e-16 0.0 4.1725246150929305" Properties=species:S:1:pos:R:3 core_positions="_JSON [[7.227024629172732, 0.0, 2.0862623075464652], [21.68107388751819, 0.0, 2.0862623075464652]]" burgers_vectors="_JSON [[-0.9834734833333334, 1.9669469666666668, -0.9834734833333334], [0.9834734833333334, -1.9669469666666668, 0.9834734833333334]]" dislocation_types="_JSON [\"1/6<112> 30 degree partial\", \"1/6<112> 30 degree partial\"]" dislocation_classes="_JSON [\"<class 'matscipy.dislocation.DiamondGlide30degreePartial'>\", \"<class 'matscipy.dislocation.DiamondGlide30degreePartial'>\"]" energy=-94315.05309135093 pbc="T T T"
In       9.89932753      -2.94487282       3.65587522
P       10.28362673      -0.41913428       3.10283868
In       6.17888597      -2.95939844       1.97207174
P        5.97865381      -0.39841493       2.10875775
In       8.16465656       0.69785356       2.49851390
P        8.26061408       3.17328706       2.27198481
In      11.53787787       0.50248692       0.96688916
P       11.80922885       3.01310684       0.44294425
In       7.03291438       3.98182932       0.16645929
P        7.13034813       6.50225367       0.09012087
In      10.68434971       3.95748159       2.49800692
P       10.76069300       6.47842902       2.30053388
In       9.55447426       7.30550242       0.18914659
P        9.63963133       9.83301308      -0.00162896
In       5.91672051       7.31255999       2.15888302
P       20.45852672     -10.59863709       2.00260647
In       8.42774161      10.65565710       2.06166686
P       22.97068336      -7.25704762       1.86418973
In      12.06424486      10.64272498       0.06847378
P       12.15062601      13.17336236      -0.09399803
In      21.76853176      -6.42075218       3.92357846
P       21.85386115      -3.89689539       3.70390694
In      10.94100469      13.98936890       1.97277835
P       25.44646982      -3.93256627       1.86731395
In      17.13556156      -2.95818440       3.59472540
P       17.40897395      -0.41939451       3.23422645
In      13.54048701      -2.97588824       1.49357982
P       13.86038704      -0.43904303       1.07022668
In      15.05978043       0.47461518       3.11353999
P       15.38693052       2.99368493       2.63878533
In      18.62148107       0.46560968       1.11082549
P       18.98323071       2.98497547       0.60189271
In      14.22014645       3.88392085       0.53214379
P       14.35753599       6.42591602       0.30307357
In      17.80342462       3.87791588       2.67265227
P       17.94932502       6.42506566       2.42470593
In      16.77048522       7.29408732       0.32100839
P       16.87959301       9.84330422       0.13589254
In      13.18150051       7.29170146       2.36783791
P       13.27395281       9.82385841       2.17394698
In      15.68314632      10.69128692       2.20790680
P       15.75615126      13.23756928       2.08060156
In      19.29886466      10.70731931       0.10708964
P       19.39507590      13.26782566      -0.01791511
In      14.54398209      14.07350865      -0.01657204
P       14.56546876      16.62009773      -0.05940573
In      18.17092934      14.09563229       2.06448581
P        3.75385697      -3.79140671       2.02115623
In      24.25728855      -3.07967526       3.93682550
P       24.34006529      -0.60329110       3.82415394
In      20.71697733      -2.97459401       1.57813965
P       20.95158477      -0.45418362       1.10315761
In      22.22555382       0.42943312       3.09467015
P       22.62426477       2.95060632       2.63825917
In      26.55511045       0.41853424       4.24005437
P       26.36476148       2.95397208       0.26037085
In      21.42362853       3.83768677       0.55472735
P       21.55454919       6.39130890       0.29668210
In      25.08499666       3.71803493       2.37460431
P       10.71641671     -14.13579276       2.23267304
In       9.53598485     -13.23362150       4.31948602
P        9.63124994     -10.65965112       4.19814730
In      20.37385783       7.27167895       2.37379677
P       20.48238932       9.83098943       2.20143320
In       8.45155451      -9.76433141       2.10952510
P        8.55661017      -7.19354750       1.99221149
In      12.05018659      -9.80915634       4.08529288
P       12.16763809      -7.25057780       3.90284358
In       7.36898602      -6.30878828       4.08166959
P        7.45616847      -3.72239343       4.03362355
In      10.98649711      -6.37085696       1.80495607
P       11.10064117      -3.81452768       1.58581874
In       2.51681888      -2.96966285       4.11243586
P        2.41840268      -0.41799754       0.01317137
In      13.34687828      17.45789555       2.02225061
P       27.77328547      -0.43625638       2.13068299
In       1.22445124       0.43128112       2.10207095
P       15.54093486     -17.46082314       2.20122132
In       4.76735532       0.48750663       0.02822494
P        4.68412350       3.03044744       0.09822366
In      14.31874156     -16.62030587       4.29628272
P       14.35720028     -14.07007400       4.21769869
In       3.47091437       3.86774243       2.18140583
P       17.97961990     -14.02927970       2.11374471
In      16.76449028     -13.19786807       4.19023403
P       16.84758846     -10.65132928       4.05826813
In      13.12874687     -13.24674143       2.12818607
P       13.23614335     -10.68212475       2.00643058
In      15.64763889      -9.80850157       1.95897859
P       15.76604474      -7.25776459       1.76679081
In      19.25099204      -9.77561473       4.07020026
P       19.35247195      -7.24050533       3.87351618
In      14.58585664      -6.39289726       3.83544950
P       14.71763006      -3.84267440       3.60355710
In      18.17269673      -6.37940027       1.76471330
P       18.30044415      -3.83589018       1.53881537
96