96
Lattice="14.45404925834546 20.441112492360922 0.0 14.45404925834546 -20.441112492360922 0.0 -2.220446049250313e-16 0.0 4.1725246150929305" Properties=species:S:1:pos:R:3 core_positions="_JSON [[7.227024629172732, 0.0, 2.0862623075464652], [21.68107388751819, 0.0, 2.0862623075464652]]" burgers_vectors="_JSON [[-0.9834734833333334, -0.9834734833333334, 1.9669469666666668], [0.9834734833333334, 0.9834734833333334, -1.9669469666666668]]" dislocation_types="_JSON [\"1/6<112> 90 degree partial\", \"1/6<112> 90 degree partial\"]" dislocation_classes="_JSON [\"<class 'matscipy.dislocation.DiamondGlide90degreePartial'>\", \"<class 'matscipy.dislocation.DiamondGlide90degreePartial'>\"]" energy=-94314.8226431408 pbc="T T T"
In       9.19046841      -3.17538267       0.16001392
P        8.43377306      -0.71804344       0.61470770
In       5.79411679      -3.17698885       1.81361052
P        6.33102158      -0.68037835       1.42724070
In       9.49913617       0.37382274       2.61792849
P        8.91124483       2.86818002       2.25024592
In      13.13726127       0.42894398       0.36381880
P       12.53355982       2.95114429       0.19886394
In       7.62331216       3.69635314       0.12202669
P        7.42033908       6.29665077       0.08941857
In      11.29111691       3.81805803       2.26816539
P       11.03609877       6.37992260       2.19137340
In       9.79157223       7.23832078       0.10002927
P        9.62840765       9.82615665       0.07008710
In       6.21221470       7.21641918       2.16376197
P       20.50473811     -10.63372467       2.15061077
In       8.42269508      10.74124834       2.15723444
P       22.72118745      -7.10816517       2.16229160
In      12.02588499      10.68122838       0.01925378
P       11.90696836      13.24679065      -0.03966684
In      21.50373311      -6.18572144       0.08763114
P       21.37014423      -3.56416171       0.13352067
In      10.69444401      14.12363265       2.04482155
P       25.09074955      -3.74893863       1.99585168
In      16.32332433      -2.92557358       0.13966258
P       15.61955432      -0.42736141       0.32695121
In      12.72524225      -2.97225186       2.24297455
P       11.99686828      -0.48492918       2.46341000
In      16.73213589       0.49284605       2.41316260
P       16.10459025       2.99869121       2.27035156
In      20.27743855       0.65760808       0.56303616
P       19.64382863       3.11886662       0.13610235
In      14.89714612       3.86840553       0.17504282
P       14.64979020       6.40940979       0.07799877
In      18.44826924       3.93992263       2.21358192
P       18.25418400       6.46795143       2.12359999
In      17.02393408       7.28221803       0.03728277
P       16.84178568       9.81272088      -0.02313751
In      13.41929723       7.25909040       2.15934833
P       13.24221165       9.81323250       2.10691899
In      15.63281041      10.66753726       2.06247869
P       15.51076491      13.21191967       2.00741046
In      19.24044693      10.61785798      -0.08157045
P       19.08652793      13.14254366      -0.12016032
In      14.31753895      14.08147229      -0.08050479
P       14.28470905      16.63746797      -0.13613590
In      17.91375390      14.02462088       1.96394174
P        3.38318683      -3.87376493       1.91932691
In      23.88287176      -2.82806468      -0.08577031
P       24.17784252      -0.31914198      -0.49388934
In      19.98055372      -2.80404972       2.25763879
P       19.17640300      -0.35708179       2.64003930
In      22.93475931       0.60857626       1.55096434
P       23.20207633       3.13077847       2.01892963
In      26.61182876       0.45292673      -0.27672132
P       12.34317829     -17.44209199      -0.12602551
In      22.01238233       4.00195530      -0.04740132
P       21.87110069       6.51534497      -0.09598015
In      25.61889680       3.85926743       1.96919782
P       11.04366652     -14.04133786       1.97276965
In       9.84658378     -13.19921409      -0.11358380
P        9.68473228     -10.67613447      -0.09730383
In      20.64097363       7.30065609       1.99526523
P       20.47572071       9.81861627       2.00263132
In       8.45048852      -9.88908857       1.98552006
P        8.27696070      -7.37164424       1.95308674
In      12.07818716      -9.83163499      -0.03161268
P       11.87211781      -7.29993090       0.02411455
In       7.05460032      -6.59022792      -0.14712379
P        6.89473415      -4.08843638      -0.24831846
In      10.64319050      -6.49396818       2.11247743
P       10.41345977      -3.96989555       2.23393582
In      16.69768009      17.47499536      -0.16859677
P        2.60425906      -0.43874694      -0.31495024
In      13.08455397      17.49546312       1.94986446
P       27.82183183      -0.40528149       1.81304783
In       1.36631892       0.40308919       1.78562362
P       15.95602783     -17.48301939       1.93410184
In       5.07427757       0.35267961      -0.52713245
P        5.17479481       2.90033069      -0.15644411
In      14.76176559     -16.61266186      -0.14268180
P       14.65306276     -14.05769429      -0.08209270
In       3.93665681       3.79107497       1.93781123
P       18.26096873     -14.07993095       2.03714645
In      17.05491032     -13.19567503      -0.04803731
P       16.91125737     -10.62640797       0.00704880
In      13.44517703     -13.20735683       2.00775448
P       13.29777889     -10.66260063       2.05382331
In      15.68324591      -9.77996095       2.09397907
P       15.47158580      -7.22446301       2.14562123
In      19.30150075      -9.72819566       0.06147515
P       19.12477332      -7.14382233       0.08436836
In      14.23296926      -6.38406159       0.06211425
P       13.96069298      -3.83730110       0.14304537
In      17.85390130      -6.33189861       2.17432949
P       17.60607467      -3.77015539       2.21261640
96
Lattice="14.45404925834546 20.441112492360922 0.0 14.45404925834546 -20.441112492360922 0.0 -2.220446049250313e-16 0.0 4.1725246150929305" Properties=species:S:1:pos:R:3 core_positions="_JSON [[7.227024629172732, 0.0, 2.0862623075464652], [21.68107388751819, 0.0, 2.0862623075464652]]" burgers_vectors="_JSON [[-0.9834734833333334, -0.9834734833333334, 1.9669469666666668], [0.9834734833333334, 0.9834734833333334, -1.9669469666666668]]" dislocation_types="_JSON [\"1/6<112> 90 degree partial\", \"1/6<112> 90 degree partial\"]" dislocation_classes="_JSON [\"<class 'matscipy.dislocation.DiamondGlide90degreePartial'>\", \"<class 'matscipy.dislocation.DiamondGlide90degreePartial'>\"]" energy=-94314.57428852431 pbc="T T T"
In       9.16917479      -3.15539931       0.16134952
P        8.42356596      -0.69971342       0.58166920
In       5.76912010      -3.14839006       1.84140582
P        6.31928552      -0.66037960       1.44575639
In       9.53922889       0.35910720       2.57383648
P        8.94724200       2.85285205       2.22567141
In      13.21659535       0.41420211       0.25420976
P       12.59093779       2.93182279       0.13557420
In       7.64396066       3.65604311       0.10156331
P        7.43747032       6.25656444       0.06846883
In      11.33910901       3.78711603       2.21049732
P       11.06817699       6.34767116       2.15341510
In       9.81373097       7.19116744       0.06455511
P        9.63917159       9.77813746       0.04634024
In       6.22569519       7.17167292       2.14468548
P       20.50895187     -10.68089883       2.13393292
In       8.43143138      10.68257212       2.13308887
P       22.71400332      -7.17135663       2.13324878
In      12.02501405      10.66570365       0.01988916
P       11.88166736      13.23541723      -0.00107562
In      21.48291688      -6.28535576       0.05190422
P       21.32371955      -3.67513311       0.06329592
In      10.67095939      14.11801165       2.08658934
P       25.04238848      -3.75339070       2.07034120
In      16.32578584      -2.95633452       0.10109883
P       15.70623654      -0.43955426       0.17098488
In      12.72260801      -2.97197817       2.21072377
P       12.05162671      -0.47619290       2.35764066
In      16.82963086       0.46451815       2.25257075
P       16.16396833       2.97040917       2.18718356
In      20.39832222       0.66108157       0.31200942
P       19.68629872       3.11501609       0.05089033
In      14.95728664       3.84762124       0.09816050
P       14.68246495       6.39063222       0.04304982
In      18.49081333       3.93884072       2.13096457
P       18.28326293       6.46757699       2.09679633
In      17.04785862       7.28086679       0.01023502
P       16.83942446       9.81238560      -0.01625451
In      13.44673630       7.24156714       2.12769726
P       13.24601427       9.79910554       2.10542271
In      15.62965189      10.66950697       2.07027646
P       15.48839986      13.21668378       2.04137921
In      19.22312853      10.65313441      -0.04697696
P       19.05771098      13.17364168      -0.07988064
In      14.28713919      14.08032732      -0.04450772
P       14.23799925      16.64052598      -0.08258334
In      17.88428999      14.05206019       2.00540396
P        3.35397506      -3.84792384       1.96716860
In      23.80442994      -2.89258203      -0.01023429
P       24.08951762      -0.32862216      -0.19812630
In      19.97686090      -2.89093678       2.16305152
P       19.30354834      -0.38440743       2.37346175
In      22.96518251       0.72533650       1.86086067
P       23.22639756       3.25064484       2.06755511
In      26.53555435       0.45468557      -0.15527478
P       12.32207536     -17.42913677      -0.09160036
In      22.01992665       4.08032727      -0.01116818
P       21.87930764       6.58629480      -0.04106797
In      25.66236562       3.94664567       1.99840068
P       11.05872851     -13.96523953       2.00919057
In       9.85477077     -13.13671963      -0.07607807
P        9.67551782     -10.61945124      -0.07253891
In      20.64856032       7.35859463       2.04816681
P       20.46328055       9.86975395       2.03832099
In       8.43822322      -9.84114456       2.01072203
P        8.25330638      -7.32892807       1.97719301
In      12.07417129      -9.79463661      -0.01781926
P       11.85368072      -7.26739375       0.03248258
In       7.02543340      -6.56086896      -0.12166092
P        6.86678543      -4.06369466      -0.22249286
In      10.62383687      -6.46338423       2.12171282
P       10.39825902      -3.94169744       2.23606723
In      16.65189502      17.48462603      -0.11808353
P        2.53844693      -0.42709400      -0.24098857
In      13.03639011      17.50150023       2.00512145
P       27.74185706      -0.39374686       1.92794455
In       1.29244830       0.40891651       1.86379170
P       15.93967757     -17.47918588       1.96931027
In       5.02447242       0.34063086      -0.49968783
P        5.17548907       2.88747101      -0.14928752
In      14.74551269     -16.61176449      -0.10773883
P       14.64687515     -14.05215833      -0.06340328
In       3.93422801       3.77051455       1.94627912
P       18.26437592     -14.10144858       2.03680634
In      17.05698332     -13.22045056      -0.04724600
P       16.90145140     -10.65181470       0.00404451
In      13.46720627     -13.16117030       2.02645782
P       13.29641787     -10.62359611       2.06683038
In      15.69094011      -9.77765787       2.09196789
P       15.45864139      -7.22759487       2.13607580
In      19.29803142      -9.78575097       0.04551625
P       19.09991966      -7.20451792       0.06164731
In      14.22359204      -6.38198149       0.05318171
P       13.95398166      -3.83742933       0.11478967
In      17.84721761      -6.36517258       2.15061116
P       17.59698013      -3.80567936       2.17786009
96
Lattice="14.45404925834546 20.441112492360922 0.0 14.45404925834546 -20.441112492360922 0.0 -2.220446049250313e-16 0.0 4.1725246150929305" Properties=species:S:1:pos:R:3 core_positions="_JSON [[7.227024629172732, 0.0, 2.0862623075464652], [21.68107388751819, 0.0, 2.0862623075464652]]" burgers_vectors="_JSON [[-0.9834734833333334, -0.9834734833333334, 1.9669469666666668], [0.9834734833333334, 0.9834734833333334, -1.9669469666666668]]" dislocation_types="_JSON [\"1/6<112> 90 degree partial\", \"1/6<112> 90 degree partial\"]" dislocation_classes="_JSON [\"<class 'matscipy.dislocation.DiamondGlide90degreePartial'>\", \"<class 'matscipy.dislocation.DiamondGlide90degreePartial'>\"]" energy=-94314.04809619754 pbc="T T T"
In       9.16753466      -3.15343371       0.16128009
P        8.42335807      -0.69772284       0.58061882
In       5.76804909      -3.14711051       1.84184422
P        6.31595418      -0.65920032       1.44487646
In       9.54499195       0.35807751       2.57229613
P        8.95433780       2.85262310       2.22558138
In      13.23503432       0.41264080       0.24583972
P       12.60525069       2.93044869       0.13443343
In       7.64787008       3.65318896       0.10130814
P        7.43951202       6.25415277       0.06828265
In      11.34895070       3.78531416       2.20981693
P       11.07170714       6.34618777       2.15289758
In       9.81638240       7.18931836       0.06412719
P        9.64127420       9.77667484       0.04618511
In       6.22751798       7.16838972       2.14454800
P       20.51093895     -10.68495468       2.13414627
In       8.43390997      10.67816374       2.13287202
P       22.71189533      -7.17687910       2.13125705
In      12.02448013      10.67262316       0.02107983
P       11.87432846      13.24581029       0.00589228
In      21.46797282      -6.31692158       0.04874026
P       21.29176374      -3.72348376       0.05537549
In      10.66349524      14.13306295       2.09518939
P       25.02374716      -3.72938958       2.08637935
In      16.32186095      -2.96491757       0.10809928
P       15.73927045      -0.44080838       0.14633212
In      12.72094814      -2.97110626       2.20992166
P       12.06365957      -0.47379654       2.35040111
In      16.85777684       0.46024710       2.22504702
P       16.19460516       2.96411464       2.18285745
In      20.41756847       0.60057857       0.10913541
P       19.71923873       3.06442133       0.04547514
In      14.97630061       3.84045521       0.09588785
P       14.68708782       6.38564225       0.04217345
In      18.52356505       3.92378517       2.13184475
P       18.29384675       6.44946691       2.09263464
In      17.05449917       7.26917793       0.00647107
P       16.84173429       9.80295459      -0.01668838
In      13.45031094       7.24138511       2.12725755
P       13.24567694       9.80142139       2.10631742
In      15.63176269      10.66521745       2.06997541
P       15.48742572      13.21426775       2.04083613
In      19.22100750      10.65422597      -0.04629641
P       19.05624878      13.17387406      -0.07962064
In      14.28430361      14.07714142      -0.04491838
P       14.23347943      16.63942758      -0.08392732
In      17.88344049      14.05125739       2.00559173
P        3.35245334      -3.84849707       1.96759978
In      23.73938769      -2.97703574       0.00662338
P       23.81142270      -0.36854221      -0.00185028
In      19.98128588      -2.93218638       2.14913511
P       19.38706885      -0.41304273       2.19480678
In      23.23674938       0.87860280       2.08927844
P       23.24884992       3.34288328       2.07532095
In      26.44554902       0.44374154      -0.15639761
P       12.30242869     -17.42609024      -0.09271050
In      22.00323245       4.10375482      -0.00753868
P       21.87944665       6.59996338      -0.03225247
In      25.70318133       4.01207776       1.99881250
P       11.06905320     -13.92128026       2.00866916
In       9.85387388     -13.11931649      -0.07628529
P        9.67252959     -10.60698434      -0.07274947
In      20.64672286       7.36715286       2.05596226
P       20.46069762       9.87503985       2.03937696
In       8.43483719      -9.83492080       2.01060927
P        8.25093963      -7.32425113       1.97715998
In      12.07304932      -9.78902722      -0.01772477
P       11.85146997      -7.26316262       0.03256236
In       7.02354640      -6.55894869      -0.12157296
P        6.86526754      -4.06231867      -0.22215889
In      10.62193841      -6.46082734       2.12177294
P       10.39659072      -3.93938384       2.23622315
In      16.65086150      17.48235998      -0.11750174
P        2.51818209      -0.42747975      -0.24322072
In      13.03358948      17.50422185       2.00368188
P       27.67388186      -0.38697056       1.92238190
In       1.26629466       0.40821674       1.86216636
P       15.93660539     -17.48094305       1.96944534
In       5.01501165       0.33838334      -0.50046099
P        5.17669206       2.88562383      -0.14961112
In      14.74574134     -16.61271639      -0.10742854
P       14.64519553     -14.05161898      -0.06422371
In       3.93544015       3.76850430       1.94587233
P       18.26497543     -14.10281133       2.03674973
In      17.05715459     -13.22317173      -0.04727492
P       16.89825095     -10.65555968       0.00417381
In      13.48152093     -13.14086131       2.02538442
P       13.29969947     -10.60982163       2.06692958
In      15.69463809      -9.77219919       2.09214520
P       15.45566997      -7.22498789       2.13619353
In      19.29560801      -9.79910871       0.04581581
P       19.08647664      -7.22249334       0.06211558
In      14.22128363      -6.38131224       0.05343104
P       13.95023591      -3.83712739       0.11494742
In      17.84337680      -6.36905250       2.15118074
P       17.59306925      -3.81204259       2.18534986
96
Lattice="14.45404925834546 20.441112492360922 0.0 14.45404925834546 -20.441112492360922 0.0 -2.220446049250313e-16 0.0 4.1725246150929305" Properties=species:S:1:pos:R:3 core_positions="_JSON [[7.227024629172732, 0.0, 2.0862623075464652], [21.68107388751819, 0.0, 2.0862623075464652]]" burgers_vectors="_JSON [[-0.9834734833333334, -0.9834734833333334, 1.9669469666666668], [0.9834734833333334, 0.9834734833333334, -1.9669469666666668]]" dislocation_types="_JSON [\"1/6<112> 90 degree partial\", \"1/6<112> 90 degree partial\"]" dislocation_classes="_JSON [\"<class 'matscipy.dislocation.DiamondGlide90degreePartial'>\", \"<class 'matscipy.dislocation.DiamondGlide90degreePartial'>\"]" energy=-94313.67965291582 pbc="T T T"
In       9.16758333      -3.15333976       0.16130210
P        8.42386457      -0.69760416       0.58081635
In       5.76825086      -3.14725153       1.84186702
P        6.31636974      -0.65930567       1.44503212
In       9.54608094       0.35801652       2.57236906
P        8.95522782       2.85263412       2.22553283
In      13.23774320       0.41309587       0.24572388
P       12.60767263       2.93085972       0.13443513
In       7.64876219       3.65316607       0.10122256
P        7.43974545       6.25406229       0.06828721
In      11.35029404       3.78536747       2.20979678
P       11.07191796       6.34624950       2.15289576
In       9.81669206       7.18940591       0.06412728
P        9.64161537       9.77700822       0.04618826
In       6.22792410       7.16820442       2.14455099
P       20.51139488     -10.68559162       2.13416487
In       8.43418097      10.67805068       2.13286792
P       22.71014468      -7.17714123       2.13123274
In      12.02414722      10.67555351       0.02119043
P       11.87229964      13.25188028       0.00654042
In      21.46226576      -6.31993998       0.04871698
P       21.28165303      -3.73830947       0.05475136
In      10.65840523      14.13724063       2.09612202
P       25.01502886      -3.71093460       2.08962604
In      16.32158493      -2.96316373       0.10853970
P       15.74525058      -0.43805123       0.14518389
In      12.72099326      -2.97128386       2.20990207
P       12.06537813      -0.47358536       2.35034602
In      16.87657396       0.45849123       2.22349711
P       16.20358699       2.96211366       2.18279653
In      20.46997699       0.53732300       0.09347318
P       19.74338356       3.02419747       0.04638128
In      14.98135023       3.83866829       0.09586553
P       14.68746412       6.38525101       0.04218948
In      18.54244884       3.90698488       2.13271508
P       18.29666652       6.43845462       2.09242094
In      17.05702309       7.26451396       0.00625011
P       16.84270021       9.80006589      -0.01674764
In      13.45068742       7.24150982       2.12728323
P       13.24533391       9.80247212       2.10639852
In      15.63225348      10.66403488       2.06991931
P       15.48737321      13.21380895       2.04031257
In      19.22114340      10.65363984      -0.04628449
P       19.05634074      13.17333779      -0.07969906
In      14.28466349      14.07623057      -0.04560814
P       14.23321622      16.63973262      -0.08478511
In      17.88372917      14.05039450       2.00546530
P        3.35244498      -3.84918434       1.96766799
In      23.71589222      -2.97778081       0.01086514
P       23.39716185      -0.38101395       0.04325943
In      19.97750811      -2.93462569       2.14844530
P       19.40623041      -0.41243376       2.18248857
In      23.48361378       0.92066393       2.13053296
P       23.24633908       3.35208054       2.07569922
In      26.47652288       0.48698396      -0.18657815
P       12.31009684     -17.39864846      -0.09289662
In      22.00035041       4.10205235      -0.00793148
P       21.88051174       6.59758397      -0.03128913
In      25.69606382       4.02607635       1.99893353
P       11.07035441     -13.91284578       2.00806815
In       9.85348742     -13.11647225      -0.07671678
P        9.67156995     -10.60540138      -0.07278225
In      20.64535902       7.36514882       2.05675432
P       20.46052311       9.87369348       2.03941982
In       8.43423362      -9.83455317       2.01059856
P        8.25064346      -7.32405763       1.97715192
In      12.07260875      -9.78856651      -0.01771908
P       11.85128178      -7.26279757       0.03257295
In       7.02350645      -6.55888213      -0.12157072
P        6.86520914      -4.06230246      -0.22214267
In      10.62180072      -6.46078412       2.12177230
P       10.39648331      -3.93932432       2.23625329
In      16.65373445      17.48016013      -0.11735868
P        2.52079134      -0.42965084      -0.24605906
In      13.03014363      17.49969041       2.00291101
P       27.66972803      -0.39101291       1.89621543
In       1.27893639       0.40990398       1.85822731
P       15.93967705     -17.48014912       1.96942080
In       5.01701782       0.33826006      -0.50092279
P        5.17768751       2.88565010      -0.14972289
In      14.75872565     -16.60341471      -0.10762221
P       14.64651714     -14.04766194      -0.06422375
In       3.93789843       3.76921357       1.94574071
P       18.26520270     -14.10260420       2.03685979
In      17.05829557     -13.22152321      -0.04711990
P       16.89810561     -10.65523191       0.00419284
In      13.48357859     -13.13770969       2.02539547
P       13.29985246     -10.60817919       2.06695240
In      15.69481026      -9.77135110       2.09216455
P       15.45543984      -7.22440272       2.13619515
In      19.29561152      -9.80186741       0.04583980
P       19.08260270      -7.22856888       0.06211042
In      14.22116007      -6.38111686       0.05345016
P       13.95025300      -3.83668202       0.11498518
In      17.84328253      -6.36922676       2.15114911
P       17.58966622      -3.81320580       2.18577778
96
Lattice="14.45404925834546 20.441112492360922 0.0 14.45404925834546 -20.441112492360922 0.0 -2.220446049250313e-16 0.0 4.1725246150929305" Properties=species:S:1:pos:R:3 core_positions="_JSON [[7.227024629172732, 0.0, 2.0862623075464652], [21.68107388751819, 0.0, 2.0862623075464652]]" burgers_vectors="_JSON [[-0.9834734833333334, -0.9834734833333334, 1.9669469666666668], [0.9834734833333334, 0.9834734833333334, -1.9669469666666668]]" dislocation_types="_JSON [\"1/6<112> 90 degree partial\", \"1/6<112> 90 degree partial\"]" dislocation_classes="_JSON [\"<class 'matscipy.dislocation.DiamondGlide90degreePartial'>\", \"<class 'matscipy.dislocation.DiamondGlide90degreePartial'>\"]" energy=-94313.79309052638 pbc="T T T"
In       9.16768739      -3.15337926       0.16134020
P        8.42427161      -0.69761587       0.58103320
In       5.76833524      -3.14735287       1.84184837
P        6.31714778      -0.65942131       1.44516059
In       9.54653991       0.35806132       2.57245869
P        8.95557922       2.85265319       2.22549610
In      13.23772433       0.41341292       0.24573394
P       12.60839300       2.93121631       0.13442815
In       7.64931083       3.65329291       0.10117909
P        7.43993974       6.25408992       0.06829477
In      11.35074354       3.78544961       2.20978950
P       11.07198988       6.34630890       2.15289482
In       9.81688591       7.18946430       0.06412817
P        9.64180155       9.77709455       0.04617734
In       6.22824571       7.16818355       2.14455821
P       20.51161583     -10.68590579       2.13417657
In       8.43435545      10.67801064       2.13284806
P       22.70929195      -7.17765204       2.13115915
In      12.02391443      10.67728725       0.02123709
P       11.87101571      13.25516043       0.00677731
In      21.46009777      -6.32174834       0.04859675
P       21.27468300      -3.74663020       0.05385994
In      10.65521341      14.14027547       2.09648033
P       25.00994046      -3.69989706       2.09114767
In      16.32187537      -2.96130505       0.10867814
P       15.74357209      -0.43683397       0.14485780
In      12.72111842      -2.97142405       2.20991123
P       12.06531334      -0.47358655       2.35036306
In      16.88319186       0.45655501       2.22301639
P       16.20602769       2.96154519       2.18272182
In      20.49163025       0.50963485       0.09050708
P       19.75209741       3.00841888       0.04663722
In      14.98326000       3.83813962       0.09582017
P       14.68745749       6.38532145       0.04220060
In      18.55081853       3.89777667       2.13288572
P       18.29769239       6.43309009       2.09238200
In      17.05837640       7.26206526       0.00618851
P       16.84318570       9.79862532      -0.01677403
In      13.45081940       7.24165901       2.12729808
P       13.24507435       9.80305062       2.10643193
In      15.63250772      10.66318995       2.06989167
P       15.48752569      13.21313425       2.03995741
In      19.22135387      10.65304376      -0.04627332
P       19.05641822      13.17289709      -0.07975242
In      14.28500450      14.07528421      -0.04609588
P       14.23360740      16.63914213      -0.08509862
In      17.88386212      14.05003830       2.00537894
P        3.35255836      -3.84949592       1.96776679
In      23.70068822      -2.95587987       0.01351080
P       23.17031281      -0.37245879       0.06933174
In      19.97180937      -2.93387928       2.14765663
P       19.39647920      -0.40895088       2.17919673
In      23.60745420       0.90335477       2.15689409
P       23.24514299       3.33885708       2.07674535
In      26.51185577       0.51954077      -0.21500417
P       12.32179886     -17.37761153      -0.09119066
In      22.00506899       4.09510731      -0.00754581
P       21.88124956       6.59365586      -0.03074251
In      25.68768149       4.03010258       2.00119982
P       11.07044048     -13.90933480       2.00770853
In       9.85271061     -13.11573179      -0.07701790
P        9.67105635     -10.60488550      -0.07276344
In      20.64519752       7.36257836       2.05716872
P       20.46070073       9.87210618       2.03945097
In       8.43397656      -9.83446019       2.01062406
P        8.25048866      -7.32401579       1.97714988
In      12.07241272      -9.78851766      -0.01772917
P       11.85117438      -7.26274160       0.03257767
In       7.02344584      -6.55885660      -0.12157143
P        6.86522197      -4.06228149      -0.22215236
In      10.62175386      -6.46082024       2.12177471
P       10.39646158      -3.93935606       2.23628688
In      16.65511036      17.47962719      -0.11717424
P        2.52671975      -0.43045764      -0.24780357
In      13.03112626      17.49875863       2.00279500
P       27.68913774      -0.39140888       1.87509605
In       1.28902357       0.41034269       1.85588414
P       15.94345152     -17.47929369       1.96950089
In       5.01951466       0.33842989      -0.50124928
P        5.17868753       2.88582830      -0.14976757
In      14.76744221     -16.59787639      -0.10783046
P       14.64837050     -14.04468808      -0.06419755
In       3.93984461       3.76984035       1.94570823
P       18.26559918     -14.10233379       2.03693490
In      17.05936949     -13.22024539      -0.04701157
P       16.89822160     -10.65479277       0.00420083
In      13.48434527     -13.13735539       2.02544488
P       13.29966973     -10.60803908       2.06694882
In      15.69461037      -9.77121925       2.09216526
P       15.45518608      -7.22439939       2.13618696
In      19.29572478      -9.80292116       0.04585610
P       19.08091921      -7.23130633       0.06211847
In      14.22109230      -6.38093222       0.05344648
P       13.95045433      -3.83641269       0.11499761
In      17.84321450      -6.36986652       2.15114089
P       17.58641230      -3.81467769       2.18593603
96