65
Lattice="11.80255 0.0 0.0 0.0 11.80255 0.0 0.0 0.0 11.80255" Properties=species:S:1:pos:R:3:mulliken_charges:R:1 fermi_energy=4.781312370495001 core_to_fermi_energy=16.851734769525017 config_type=Interstitial energy=-64625.80658463441 pbc="T T T"
P        1.47531875       1.47531875       4.45277507      -0.63200000
P        4.45277507       1.47531875       1.47531875      -0.63200000
P        1.47531875       4.45277507       1.47531875      -0.63200000
P        4.42624129       4.42624129       4.42624129      -0.67300000
P        1.47531875       1.47531875      10.30041243      -0.63200000
P        4.43125369       1.47531875       7.37659375      -0.67100000
P        1.47531875       4.43125369       7.37659375      -0.67100000
P        4.54525854       4.54525854      10.20792896      -0.67000000
P        1.47531875       7.37659375       4.43125369      -0.67100000
P        4.43125369       7.37659375       1.47531875      -0.67100000
P        1.47531875      10.30041243       1.47531875      -0.63200000
P        4.54525854      10.20792896       4.54525854      -0.67000000
P        1.47531875       7.37659375      10.32193381      -0.67100000
P        4.43587773       7.37659375       7.37659375      -0.67400000
P        1.47531875      10.32193381       7.37659375      -0.67100000
P        4.42624129      10.32694621      10.32694621      -0.67300000
P        7.37659375       1.47531875       4.43125369      -0.67100000
P       10.30041243       1.47531875       1.47531875      -0.63200000
P        7.37659375       4.43125369       1.47531875      -0.67100000
P       10.20792896       4.54525854       4.54525854      -0.67000000
P        7.37659375       1.47531875      10.32193381      -0.67100000
P       10.32193381       1.47531875       7.37659375      -0.67100000
P        7.37659375       4.43587773       7.37659375      -0.67400000
P       10.32694621       4.42624129      10.32694621      -0.67300000
P        7.37659375       7.37659375       4.43587773      -0.67400000
P       10.32193381       7.37659375       1.47531875      -0.67100000
P        7.37659375      10.32193381       1.47531875      -0.67100000
P       10.32694621      10.32694621       4.42624129      -0.67300000
P        7.37659375       7.37659375      10.31730977      -0.67400000
P       10.31730977       7.37659375       7.37659375      -0.67400000
P        7.37659375      10.31730977       7.37659375      -0.67400000
P       10.20792896      10.20792896      10.20792896      -0.67000000
In      -0.16727385      -0.16727385      -0.16727385       0.61300000
In       3.11791135      -0.16727385       3.11791135       0.61300000
In      -0.16727385       3.11791135       3.11791135       0.61300000
In       3.11791135       3.11791135      -0.16727385       0.61300000
In      -0.00661601      -0.00661601       5.91352256       0.66000000
In       2.95725351      -0.00661601       8.83966494       0.66000000
In      -0.00661601       2.95725351       8.83966494       0.66100000
In       2.95725351       2.95725351       5.91352256       0.66000000
In      -0.00661601       5.91352256      -0.00661601       0.66000000
In       2.95725351       5.91352256       2.95725351       0.66000000
In      -0.00661601       8.83966494       2.95725351       0.66100000
In       2.95725351       8.83966494      -0.00661601       0.66100000
In       0.01695566       5.93737172       5.93737172       0.65700000
In       2.93368184       5.93737172       8.81581578       0.65700000
In       0.01695566       8.81581578       8.81581578       0.65700000
In       2.93368184       8.81581578       5.93737172       0.65700000
In       5.91352256      -0.00661601      -0.00661601       0.66000000
In       8.83966494      -0.00661601       2.95725351       0.66000000
In       5.91352256       2.95725351       2.95725351       0.66000000
In       8.83966494       2.95725351      -0.00661601       0.66100000
In       5.93737172       0.01695566       5.93737172       0.65700000
In       8.81581578       0.01695566       8.81581578       0.65700000
In       5.93737172       2.93368184       8.81581578       0.65700000
In       8.81581578       2.93368184       5.93737172       0.65700000
In       5.93737172       5.93737172       0.01695566       0.65700000
In       8.81581578       5.93737172       2.93368184       0.65700000
In       5.93737172       8.81581578       2.93368184       0.65700000
In       8.81581578       8.81581578       0.01695566       0.65700000
In       5.89972548       5.89972548       5.89972548       0.66500000
In       8.85346202       5.89972548       8.85346202       0.66500000
In       5.89972548       8.85346202       8.85346202       0.66500000
In       8.85346202       8.85346202       5.89972548       0.66500000
In       1.47531875       1.47531875       1.47531875       0.34500000
65
Lattice="11.80255 0.0 0.0 0.0 11.80255 0.0 0.0 0.0 11.80255" Properties=species:S:1:pos:R:3:mulliken_charges:R:1 fermi_energy=4.781312370495001 core_to_fermi_energy=16.851734769525017 config_type=Interstitial energy=-64625.76562583626 pbc="T T T"
P        1.53395557       1.41668193       4.45763919      -0.63200000
P        4.48678292       1.47763616       1.48773835      -0.63200000
P        1.53395557       4.44753701       1.42678412      -0.63200000
P        4.43487062       4.43338094       4.44348313      -0.67300000
P        1.47300134       1.47763616      10.27650676      -0.63200000
P        4.44919337       1.45157723       7.36844158      -0.67100000
P        1.48761837       4.41619005       7.37488644      -0.67100000
P        4.60154158       4.53678968      10.16174811      -0.67000000
P        1.48761837       7.36478426       4.42629224      -0.67100000
P        4.44919337       7.35833939       1.46167942      -0.67100000
P        1.47300134      10.26640458       1.48773835      -0.63200000
P        4.60154159      10.15164591       4.54689188      -0.67000000
P        1.49906027       7.35833939      10.31409631      -0.67100000
P        4.46182408       7.36947844       7.37958062      -0.67400000
P        1.49906027      10.30399413       7.36844158      -0.67100000
P        4.41277374      10.34041376      10.35051595      -0.67300000
P        7.38840324       1.46301913       4.42629224      -0.67100000
P       10.30565049       1.41668193       1.42678412      -0.63200000
P        7.38840324       4.41619005       1.47312131      -0.67100000
P       10.34168273       4.41150477       4.42160696      -0.67000000
P        7.39484811       1.45157723      10.31409631      -0.67100000
P       10.33699745       1.46301913       7.37488644      -0.67100000
P        7.42766418       4.40808049       7.33562551      -0.67400000
P       10.31980656       4.43338094      10.32841906      -0.67300000
P        7.42766417       7.32552333       4.41818268      -0.67400000
P       10.33699745       7.36478426       1.47312131      -0.67100000
P        7.39484811      10.30399413       1.46167942      -0.67100000
P       10.31980656      10.31831688       4.44348313      -0.67300000
P        7.38370906       7.36947844      10.30146561      -0.67400000
P       10.34510701       7.32552332       7.33562551      -0.67400000
P        7.38370906      10.29136342       7.37958062      -0.67400000
P       10.21639782      10.15164592      10.16174811      -0.67000000
In      -0.19825137      -0.21103767      -0.20093549       0.61300000
In       3.16167515      -0.21103765       3.15899103       0.61300000
In      -0.01184939       2.96248689       2.97258908       0.61300000
In       3.16167517       3.14888887      -0.20093549       0.61300000
In       0.00943644      -0.01999506       5.91789721       0.66000000
In       2.96034517      -0.00970767       8.83993540       0.66000000
In      -0.01760387       2.96824137       8.84068391       0.66100000
In       2.97063256       2.94120106       5.91789721       0.66000000
In       0.00943644       5.90779502      -0.00989287       0.66000000
In       2.97063256       5.90779502       2.95130325       0.66000000
In      -0.01760387       8.83058172       2.97834356       0.66100000
In       2.96034517       8.82983321       0.00039452       0.66100000
In       0.02772722       5.86911431       5.87921650       0.65700000
In       2.95535585       5.92422511       8.80221572       0.65700000
In       0.04514191       8.76812588       8.77822806       0.65700000
In       2.95535585       8.79211353       5.93432729       0.65700000
In       5.92335429      -0.00970767       0.00039452       0.66000000
In       8.84539248      -0.01999506       2.95130325       0.66000000
In       5.92260578       2.96824137       2.97834356       0.66000000
In       8.84539248       2.94120106      -0.00989287       0.66100000
In       5.96107397      -0.00471835       5.93432729       0.65700000
In       8.82896239      -0.00471835       8.80221572       0.65700000
In       5.98506162       2.90549559       8.77822806       0.65700000
In       8.88407319       2.92291028       5.87921650       0.65700000
In       5.96107397       5.92422511       0.00538384       0.65700000
In       8.88407319       5.86911431       2.93301246       0.65700000
In       5.98506162       8.76812588       2.91559778       0.65700000
In       8.82896239       8.79211353       0.00538384       0.65700000
In       5.93083088       5.89376821       5.90387039       0.66500000
In       8.85941929       5.89376821       8.83245881       0.66500000
In       5.88912969       8.86405781       8.87416000       0.66500000
In       8.85941929       8.82235662       5.90387039       0.66500000
In       1.64459967       1.30603783       1.31614002       0.34500000
65
Lattice="11.80255 0.0 0.0 0.0 11.80255 0.0 0.0 0.0 11.80255" Properties=species:S:1:pos:R:3:mulliken_charges:R:1 fermi_energy=4.781312370495001 core_to_fermi_energy=16.851734769525017 config_type=Interstitial energy=-64625.56620079313 pbc="T T T"
P        1.53614740       1.41449010       4.48413953      -0.63200000
P        4.53784604       1.50723405       1.51750492      -0.63200000
P        1.53614727       4.47386879       1.42476100      -0.63200000
P        4.43091319       4.45375977       4.46403056      -0.67300000
P        1.44340337       1.50723413      10.22561207      -0.63200000
P        4.44912233       1.45545881       7.36327133      -0.67100000
P        1.48003599       4.42878559       7.37025576      -0.67100000
P        4.60223695       4.54043270      10.16122134      -0.67000000
P        1.48003597       7.35998495       4.43905637      -0.67100000
P        4.44912234       7.35300052       1.46572964      -0.67100000
P        1.44340345      10.21534146       1.51750492      -0.63200000
P        4.60223738      10.15095012       4.55070385      -0.67000000
P        1.49517869       7.35300052      10.31433595      -0.67100000
P        4.46151194       7.38474099       7.39501167      -0.67400000
P        1.49517869      10.30406517       7.36327133      -0.67100000
P        4.38333364      10.36985386      10.38012463      -0.67300000
P        7.39320255       1.47060153       4.43905637      -0.67100000
P       10.27931871       1.41449023       1.42476100      -0.63200000
P        7.39320255       4.42878558       1.48087235      -0.67100000
P       10.42797520       4.32521230       4.33548309      -0.67000000
P        7.40018698       1.45545881      10.31433595      -0.67100000
P       10.32440191       1.47060151       7.37025576      -0.67100000
P        7.43384357       4.40786260       7.32961472      -0.67400000
P       10.29942777       4.45375973      10.33254513      -0.67300000
P        7.43384353       7.31934397       4.41813343      -0.67400000
P       10.32440192       7.35998495       1.48087235      -0.67100000
P        7.40018698      10.30406516       1.46572964      -0.67100000
P       10.29942773      10.32227431       4.46403056      -0.67300000
P        7.36844657       7.38474093      10.30194639      -0.67400000
P       10.34532490       7.31934393       7.32961472      -0.67400000
P        7.36844651      10.29167556       7.39501167      -0.67400000
P       10.21275480      10.15095055      10.16122134      -0.67000000
In      -0.27543092      -0.18526518      -0.17499435       0.61300000
In       3.13590207      -0.18526457       3.23633866       0.61300000
In       0.11727186       2.83336564       2.84363642       0.61300000
In       3.13590268       3.22606842      -0.17499435       0.61300000
In      -0.00332805      -0.01733760       5.92829190       0.66000000
In       2.94714540       0.00349210       8.82630593       0.66000000
In      -0.05483004       3.00546754       8.82091242       0.66100000
In       2.96797510       2.95396555       5.92829190       0.66000000
In      -0.00332805       5.91802109      -0.00706682       0.66000000
In       2.96797512       5.91802110       2.96423635       0.66000000
In      -0.05483006       8.81064160       3.01573834       0.66100000
In       2.94714538       8.81603513       0.01376292       0.66100000
In       0.00279557       5.84060427       5.85087508       0.65700000
In       2.95435923       5.92612604       8.79853165       0.65700000
In       0.04586479       8.76910248       8.77937329       0.65700000
In       2.95435929       8.78826082       5.93639689       0.65700000
In       5.93715237       0.00349212       0.01376292       0.66000000
In       8.83516640      -0.01733762       2.96423635       0.66000000
In       5.94254590       3.00546756       3.01573834       0.66000000
In       8.83516641       2.95396555      -0.00706682       0.66100000
In       5.96492668      -0.00372179       5.93639689       0.65700000
In       8.82706146      -0.00372173       8.79853165       0.65700000
In       5.98408502       2.90477271       8.77937329       0.65700000
In       8.91258323       2.94784193       5.85087508       0.65700000
In       5.96492668       5.92612608       0.00654902       0.65700000
In       8.91258325       5.84060425       2.95811269       0.65700000
In       5.98408500       8.76910250       2.91504353       0.65700000
In       8.82706142       8.78826082       0.00654902       0.65700000
In       5.93287511       5.91061834       5.92088916       0.66500000
In       8.84256913       5.91061837       8.83058318       0.66500000
In       5.86053110       8.89265640       8.90292721       0.66500000
In       8.84256916       8.82031239       5.92088916       0.66500000
In       1.88376148       1.06687602       1.07714729       0.34500000
65
Lattice="11.80255 0.0 0.0 0.0 11.80255 0.0 0.0 0.0 11.80255" Properties=species:S:1:pos:R:3:mulliken_charges:R:1 fermi_energy=4.781312370495001 core_to_fermi_energy=16.851734769525017 config_type=Interstitial energy=-64625.158556718445 pbc="T T T"
P        1.51879502       1.43184248       4.48367505      -0.63200000
P        4.57753188       1.53902870       1.54929952      -0.63200000
P        1.51879501       4.47340423       1.44211331      -0.63200000
P        4.43042984       4.45984265       4.47011347      -0.67300000
P        1.41160880       1.53902870      10.18592643      -0.63200000
P        4.45180641       1.45790840       7.35618914      -0.67100000
P        1.48405103       4.43145856       7.36185206      -0.67100000
P        4.58164978       4.52571018      10.18180854      -0.67000000
P        1.48405103       7.35158124       4.44172938      -0.67100000
P        4.45180641       7.34591831       1.46817922      -0.67100000
P        1.41160880      10.17565562       1.54929952      -0.63200000
P        4.58164978      10.17153772       4.53598101      -0.67000000
P        1.49272910       7.34591831      10.31165191      -0.67100000
P        4.46102886       7.39025332       7.40052414      -0.67400000
P        1.49272910      10.30138109       7.35618914      -0.67100000
P        4.36503869      10.38814881      10.39841963      -0.67300000
P        7.40160626       1.46658647       4.44172938      -0.67100000
P       10.27978327       1.43184249       1.44211331      -0.63200000
P        7.40160626       4.43145856       1.47685729      -0.67100000
P       10.42462183       4.32856567       4.33883649      -0.67000000
P        7.40726919       1.45790840      10.31165191      -0.67100000
P       10.32172894       1.46658647       7.36185206      -0.67100000
P        7.42911656       4.40997737       7.33434177      -0.67400000
P       10.29334485       4.45984265      10.33302849      -0.67300000
P        7.42911655       7.32407095       4.42024819      -0.67400000
P       10.32172894       7.35158124       1.47685729      -0.67100000
P        7.40726919      10.30138109       1.46817922      -0.67100000
P       10.29334485      10.32275766       4.47011347      -0.67300000
P        7.36293418       7.39025332      10.30242946      -0.67400000
P       10.34321013       7.32407094       7.33434177      -0.67400000
P        7.36293418      10.29215864       7.40052414      -0.67400000
P       10.22747732      10.17153772      10.18180854      -0.67000000
In      -0.29041569      -0.14589125      -0.13562043       0.61300000
In       3.09652874      -0.14589124       3.25132400       0.61300000
In       0.12790868       2.82272882       2.83299964       0.61300000
In       3.09652875       3.24105319      -0.13562043       0.61300000
In      -0.00103851      -0.01754413       5.92069860       0.66000000
In       2.93188484       0.01875266       8.81853427       0.66000000
In      -0.08302044       3.03365794       8.78980411       0.66100000
In       2.96818163       2.95167601       5.92069860       0.66000000
In      -0.00103851       5.91042778      -0.00727331       0.66000000
In       2.96818163       5.91042777       2.96194683       0.66000000
In      -0.08302044       8.77953329       3.04392876       0.66100000
In       2.93188484       8.80826345       0.02902348       0.66100000
In      -0.00022240       5.84286630       5.85313713       0.65700000
In       2.95835978       5.92210536       8.79922583       0.65700000
In       0.04000960       8.77654391       8.78681473       0.65700000
In       2.95835978       8.78895501       5.93237618       0.65700000
In       5.94492405       0.01875266       0.02902348       0.66000000
In       8.84275973      -0.01754413       2.96194683       0.66000000
In       5.97365421       3.03365794       3.04392876       0.66000000
In       8.84275972       2.95167601      -0.00727331       0.66100000
In       5.96423249      -0.00772228       5.93237618       0.65700000
In       8.83108214      -0.00772228       8.79922583       0.65700000
In       5.97664359       2.91062790       8.78681473       0.65700000
In       8.91032120       2.95085990       5.85313713       0.65700000
In       5.96423249       5.92210536       0.00254855       0.65700000
In       8.91032119       5.84286631       2.96113073       0.65700000
In       5.97664359       8.77654391       2.92089872       0.65700000
In       8.83108214       8.78895501       0.00254855       0.65700000
In       5.93036943       5.91609856       5.92636938       0.66500000
In       8.83708894       5.91609856       8.83308889       0.66500000
In       5.85058368       8.90260382       8.91287465       0.66500000
In       8.83708894       8.82281807       5.92636938       0.66500000
In       2.13958760       0.81104990       0.82132073       0.34500000
65
Lattice="11.80255 0.0 0.0 0.0 11.80255 0.0 0.0 0.0 11.80255" Properties=species:S:1:pos:R:3:mulliken_charges:R:1 fermi_energy=4.781312370495001 core_to_fermi_energy=16.851734769525017 config_type=Interstitial energy=-64625.05861399772 pbc="T T T"
P        1.50893705       1.44170045       4.47319196      -0.63200000
P        4.57487350       1.55706165       1.56733247      -0.63200000
P        1.50893705       4.46292114       1.45197127      -0.63200000
P        4.42948805       4.46308078       4.47335161      -0.67300000
P        1.39357585       1.55706165      10.18858482      -0.63200000
P        4.45121213       1.45866466       7.35857836      -0.67100000
P        1.48566499       4.43144616       7.35933735      -0.67100000
P        4.57109656       4.51962787      10.19236177      -0.67000000
P        1.48566499       7.34906653       4.44171698      -0.67100000
P        4.45121213       7.34830754       1.46893548      -0.67100000
P        1.39357585      10.17831400       1.56733247      -0.63200000
P        4.57109655      10.18209095       4.52989869      -0.67000000
P        1.49197284       7.34830754      10.31224619      -0.67100000
P        4.46073932       7.39215695       7.40242777      -0.67400000
P        1.49197284      10.30197537       7.35857836      -0.67100000
P        4.34995865      10.40322885      10.41349968      -0.67300000
P        7.40412097       1.46497251       4.44171698      -0.67100000
P       10.29026636       1.44170045       1.45197127      -0.63200000
P        7.40412097       4.43144616       1.47524333      -0.67100000
P       10.41079246       4.34239504       4.35266586      -0.67000000
P        7.40487996       1.45866466      10.31224619      -0.67100000
P       10.32174134       1.46497251       7.35933735      -0.67100000
P        7.42655940       4.41038026       7.33689892      -0.67400000
P       10.29010672       4.46308078      10.33397027      -0.67300000
P        7.42655940       7.32662810       4.42065108      -0.67400000
P       10.32174134       7.34906653       1.47524333      -0.67100000
P        7.40487996      10.30197537       1.46893548      -0.67100000
P       10.29010672      10.32369945       4.47335161      -0.67300000
P        7.36103055       7.39215695      10.30271901      -0.67400000
P       10.34280724       7.32662810       7.33689892      -0.67400000
P        7.36103055      10.29244818       7.40242777      -0.67400000
P       10.23355963      10.18209094      10.19236177      -0.67000000
In      -0.28233469      -0.12661281      -0.11634199       0.61300000
In       3.07725031      -0.12661281       3.24324301       0.61300000
In       0.09622097       2.85441653       2.86468735       0.61300000
In       3.07725031       3.23297219      -0.11634199       0.61300000
In       0.00238739      -0.01767670       5.91683997       0.66000000
In       2.92136459       0.02927291       8.81700395       0.66000000
In      -0.09431990       3.04495740       8.77923063       0.66100000
In       2.96831420       2.94825011       5.91683997       0.66000000
In       0.00238739       5.90656915      -0.00740588       0.66000000
In       2.96831420       5.90656915       2.95852094       0.66000000
In      -0.09431990       8.76895981       3.05522822       0.66100000
In       2.92136459       8.80673313       0.03954373       0.66100000
In       0.00140442       5.84744065       5.85771147       0.65700000
In       2.95953611       5.92082115       8.80022895       0.65700000
In       0.03560716       8.78184085       8.79211167       0.65700000
In       2.95953611       8.78995813       5.93109197       0.65700000
In       5.94645437       0.02927291       0.03954373       0.66000000
In       8.84661835      -0.01767670       2.95852094       0.66000000
In       5.98422769       3.04495740       3.05522822       0.66000000
In       8.84661835       2.94825011      -0.00740588       0.66100000
In       5.96322937      -0.00889861       5.93109197       0.65700000
In       8.83236635      -0.00889861       8.80022895       0.65700000
In       5.97134665       2.91503034       8.79211167       0.65700000
In       8.90574685       2.94923308       5.85771147       0.65700000
In       5.96322937       5.92082114       0.00137221       0.65700000
In       8.90574685       5.84744065       2.95950390       0.65700000
In       5.97134665       8.78184085       2.92530116       0.65700000
In       8.83236636       8.78995813       0.00137221       0.65700000
In       5.92920563       5.91771986       5.92799069       0.66500000
In       8.83546764       5.91771986       8.83425269       0.66500000
In       5.84740038       8.90578712       8.91605794       0.66500000
In       8.83546764       8.82398187       5.92799069       0.66500000
In       2.35376585       0.59687165       0.60714247       0.34500000
65
Lattice="11.80255 0.0 0.0 0.0 11.80255 0.0 0.0 0.0 11.80255" Properties=species:S:1:pos:R:3:mulliken_charges:R:1 fermi_energy=4.781312370495001 core_to_fermi_energy=16.851734769525017 config_type=Interstitial energy=-64625.34230277433 pbc="T T T"
P        1.50335447       1.44728303       4.46835830      -0.63200000
P        4.55526812       1.57022481       1.58049563      -0.63200000
P        1.50335447       4.45808748       1.45755385      -0.63200000
P        4.42722922       4.46351541       4.47378624      -0.67300000
P        1.38041270       1.57022480      10.20819021      -0.63200000
P        4.45234406       1.46146460       7.35804690      -0.67100000
P        1.48462207       4.43240770       7.35837594      -0.67100000
P        4.55861644       4.51092215      10.20484188      -0.67000000
P        1.48462207       7.34810512       4.44267853      -0.67100000
P        4.45234406       7.34777608       1.47173543      -0.67100000
P        1.38041269      10.19791938       1.58049563      -0.63200000
P        4.55861643      10.19457107       4.52119297      -0.67000000
P        1.48917289       7.34777608      10.31111427      -0.67100000
P        4.46069073       7.39572515       7.40599598      -0.67400000
P        1.48917290      10.30084344       7.35804690      -0.67100000
P        4.33029437      10.42289313      10.43316395      -0.67300000
P        7.40508238       1.46601543       4.44267853      -0.67100000
P       10.29510002       1.44728303       1.45755385      -0.63200000
P        7.40508238       4.43240771       1.47628625      -0.67100000
P       10.40326457       4.34992293       4.36019376      -0.67000000
P        7.40541142       1.46146461      10.31111427      -0.67100000
P       10.32077980       1.46601543       7.35837594      -0.67100000
P        7.42246973       4.41067171       7.34098859      -0.67400000
P       10.28967208       4.46351542      10.33622910      -0.67300000
P        7.42246973       7.33071777       4.42094254      -0.67400000
P       10.32077979       7.34810512       1.47628625      -0.67100000
P        7.40541142      10.30084344       1.47173543      -0.67100000
P       10.28967209      10.32595828       4.47378624      -0.67300000
P        7.35746235       7.39572515      10.30276759      -0.67400000
P       10.34251579       7.33071777       7.34098859      -0.67400000
P        7.35746235      10.29249677       7.40599598      -0.67400000
P       10.24226535      10.19457106      10.20484188      -0.67000000
In      -0.26677378      -0.10875700      -0.09848618       0.61300000
In       3.05939451      -0.10875701       3.22768211       0.61300000
In       0.08465317       2.86598433       2.87625515       0.61300000
In       3.05939450       3.21741128      -0.09848618       0.61300000
In       0.00071933      -0.01686963       5.91638183       0.66000000
In       2.90970689       0.04093061       8.80260056       0.66000000
In      -0.10038567       3.05102317       8.77446760       0.66100000
In       2.96750713       2.94991817       5.91638183       0.66000000
In       0.00071933       5.90611100      -0.00659881       0.66000000
In       2.96750713       5.90611100       2.96018899       0.66000000
In      -0.10038566       8.76419678       3.06129399       0.66100000
In       2.90970689       8.79232974       0.05120144       0.66100000
In       0.00034307       5.85115231       5.86142313       0.65700000
In       2.96060770       5.91683684       8.80032914       0.65700000
In       0.03258390       8.78953901       8.79980984       0.65700000
In       2.96060770       8.79005832       5.92710766       0.65700000
In       5.96085776       0.04093061       0.05120144       0.66000000
In       8.84707650      -0.01686963       2.96018899       0.66000000
In       5.98899072       3.05102316       3.06129399       0.66000000
In       8.84707650       2.94991817      -0.00659881       0.66100000
In       5.96312918      -0.00997020       5.92710766       0.65700000
In       8.83635066      -0.00997020       8.80032914       0.65700000
In       5.96364849       2.91805360       8.79980984       0.65700000
In       8.90203519       2.95029443       5.86142313       0.65700000
In       5.96312918       5.91683683       0.00030062       0.65700000
In       8.90203519       5.85115231       2.96056525       0.65700000
In       5.96364849       8.78953901       2.92832441       0.65700000
In       8.83635067       8.79005832       0.00030062       0.65700000
In       5.92803589       5.91902419       5.92929501       0.66500000
In       8.83416331       5.91902419       8.83542243       0.66500000
In       5.83254539       8.92064211       8.93091293       0.66500000
In       8.83416331       8.82515161       5.92929501       0.66500000
In       2.56027807       0.39035943       0.40063025       0.34500000
65
Lattice="11.80255 0.0 0.0 0.0 11.80255 0.0 0.0 0.0 11.80255" Properties=species:S:1:pos:R:3:mulliken_charges:R:1 fermi_energy=4.781312370495001 core_to_fermi_energy=16.851734769525017 config_type=Interstitial energy=-64625.74328394814 pbc="T T T"
P        1.48630674       1.46433076       4.46482547      -0.63200000
P        4.51928952       1.57869363       1.58896396      -0.63200000
P        1.48630674       4.45455514       1.47460109      -0.63200000
P        4.42956073       4.46300405       4.47327438      -0.67300000
P        1.37194387       1.57869363      10.24416831      -0.63200000
P        4.45300885       1.47790787       7.35395577      -0.67100000
P        1.48209380       4.43611615       7.35891120      -0.67100000