63
Lattice="11.8016818 -7.6e-06 -7.6e-06 -7.6e-06 11.8016818 -7.8e-06 -7.6e-06 -7.8e-06 11.8016816" Properties=species:S:1:pos:R:3:mulliken_charges:R:1 virial="-0.001343979365248383 3.847269175329341e-05 3.847269175329341e-05 3.847269175329341e-05 -0.001345261788306826 3.847269175329341e-05 3.847269175329341e-05 3.847269175329341e-05 -0.0013426969421899398" fermi_energy=3.4539138232004998 core_to_fermi_energy=15.43004959127955 config_type=Accurate_Bulk energy=-61124.37269594102 pbc="T T T"
P        1.48691403       1.48691398       4.43353438      -0.67500000
P        4.43353448       1.48691404       1.48691402      -0.67500000
P        1.48691404       4.43353446       1.48691396      -0.67500000
P        4.53571201       4.53571199       4.53571194      -0.67500000
In       0.00000063       0.00000062       0.00000062       0.67500000
In       2.95774560      -0.00013195       2.95774553       0.67500000
In      -0.00013190       2.95774555       2.95774549       0.67500000
In       2.95774560       2.95774559      -0.00013195       0.67500000
P        1.47633380       1.47633363      10.32533793      -0.67500000
P        4.42703071       1.48687515       7.37464031      -0.67500000
P        1.48687525       4.42703060       7.37464026      -0.67500000
P        4.42702669       4.42702653      10.31479095      -0.67500000
In      -0.00000288      -0.00000300       5.90084124       0.67500000
In       2.95774124       0.00012252       8.84393417       0.67500000
In       0.00012269       2.95774107       8.84393413       0.67500000
In       3.00771144       3.00771134       5.86967726       0.67500000
P        1.48687525       7.37464039       4.42703053      -0.67500000
P        4.42703071       7.37464044       1.48687513      -0.67500000
P        1.47633380      10.32533810       1.47633360      -0.67500000
P        4.42702669      10.31479114       4.42702646      -0.67500000
In      -0.00000288       5.90084134      -0.00000300       0.67500000
In       3.00771145       5.86967737       3.00771130       0.67500000
In       0.00012269       8.84393428       2.95774101       0.67500000
In       2.95774124       8.84393432       0.00012251       0.67500000
P        1.48690496       7.36813760      10.31475794      -0.67500000
P        4.53570316       7.26595729       7.26595714      -0.67500000
P        1.48690495      10.31475813       7.36813748      -0.67500000
P        4.43352229      10.31475407      10.31475389      -0.67500000
In      -0.00000735       5.90083735       5.90083725       0.67500000
In       3.00770523       5.93199498       8.79396185       0.67500000
In      -0.00014114       8.84392971       8.84392956       0.67500000
In       3.00770522       8.79396202       5.93199489       0.67500000
P        7.37464044       1.48687521       4.42703064      -0.67500000
P       10.32533811       1.47633379       1.47633376      -0.67500000
P        7.37464044       4.42703071       1.48687519      -0.67500000
P       10.31479118       4.42702664       4.42702657      -0.67500000
In       5.90084135      -0.00000290      -0.00000290       0.67500000
In       8.84393433       0.00012264       2.95774117       0.67500000
In       5.86967742       3.00771142       3.00771137       0.67500000
In       8.84393433       2.95774123       0.00012263       0.67500000
P        7.36813777       1.48690478      10.31475806      -0.67500000
P       10.31475825       1.48690483       7.36813764      -0.67500000
P        7.26595742       4.53570303       7.26595726      -0.67500000
P       10.31475424       4.43352212      10.31475401      -0.67500000
In       5.90083746      -0.00000745       5.90083735       0.67500000
In       8.84392988      -0.00014132       8.84392972       0.67500000
In       5.93199516       3.00770505       8.79396193       0.67500000
In       8.79396214       3.00770510       5.93199501       0.67500000
P        7.26595742       7.26595741       4.53570297      -0.67500000
P       10.31475824       7.36813776       1.48690481      -0.67500000
P        7.36813777      10.31475824       1.48690476      -0.67500000
P       10.31475425      10.31475419       4.43352203      -0.67500000
In       5.90083746       5.90083745      -0.00000745       0.67500000
In       8.79396213       5.93199511       3.00770507       0.67500000
In       5.93199516       8.79396209       3.00770500       0.67500000
In       8.84392988       8.84392986      -0.00014131       0.67500000
P        7.37463221       7.37463205      10.31478680      -0.67500000
P       10.31478708       7.37463211       7.37463198      -0.67500000
P        7.37463221      10.31478699       7.37463192      -0.67500000
P       10.32532604      10.32532587      10.32532570      -0.67500000
In       8.79395694       5.86966784       8.79395668       0.67500000
In       5.86966801       8.79395675       8.79395659       0.67500000
In       8.79395696       8.79395685       5.86966773       0.67500000
63
Lattice="11.8016818 -7.6e-06 -7.6e-06 -7.6e-06 11.8016818 -7.8e-06 -7.6e-06 -7.8e-06 11.8016816" Properties=species:S:1:pos:R:3:mulliken_charges:R:1 virial="-0.001343979365248383 3.847269175329341e-05 3.847269175329341e-05 3.847269175329341e-05 -0.001345261788306826 3.847269175329341e-05 3.847269175329341e-05 3.847269175329341e-05 -0.0013426969421899398" fermi_energy=3.4539138232004998 core_to_fermi_energy=15.43004959127955 config_type=Accurate_Bulk energy=-61124.1334828807 pbc="T T T"
P        1.61019947       1.61019942       4.56124371      -0.67500000
P        4.43884983       1.49817212       1.52558681      -0.67500000
P        1.49817212       4.43884982       1.52558676      -0.67500000
P        4.79568642       4.79568638       4.41106759      -0.67500000
In       0.02289400       0.02289399      -0.01232956       0.67500000
In       2.93319363       0.05359949       3.02944000       0.67500000
In       0.05359954       2.93319358       3.02943995       0.67500000
In       2.98152008       2.98152006       0.03333776       0.67500000
P        1.51057322       1.51057305      10.32603002      -0.67500000
P        4.49461554       1.56575796       7.35332959      -0.67500000
P        1.56575806       4.49461542       7.35332953      -0.67500000
P        4.43231845       4.43231829      10.32482380      -0.67500000
In       0.02410393       0.02410381       5.86257424       0.67500000
In       2.96515604       0.08083960       8.78173475       0.67500000
In       0.08083979       2.96515586       8.78173470       0.67500000
In       3.32085866       3.32085854       5.88288607       0.67500000
P        1.51243737       7.40911723       4.39816656      -0.67500000
P        4.44525639       7.43888207       1.40332148      -0.67500000
P        1.49497789      10.37525935       1.49121974      -0.67500000
P        4.42613879      10.32583658       4.44173412      -0.67500000
In      -0.01121638       5.89792289       0.05161282       0.67500000
In       3.04162733       5.94464431       2.93904881       0.67500000
In       0.00255235       8.87155162       2.94064746       0.67500000
In       2.97190228       8.93604410      -0.04009897       0.67500000
P        1.43490053       7.42656894      10.37908598      -0.67500000
P        4.48060583       7.28111380       7.32481675      -0.67500000
P        1.47610214      10.34388188       7.37290876      -0.67500000
P        4.44481392      10.39245485      10.26603555      -0.67500000
In       0.03662022       5.92127288       5.87003499       0.67500000
In       2.95480226       5.99328431       8.89803336       0.67500000
In      -0.02546253       8.86246233       8.83337122       0.67500000
In       3.00076328       8.81692758       5.95733612       0.67500000
P        7.40911729       1.51243731       4.39816667      -0.67500000
P       10.37525935       1.49497788       1.49121989      -0.67500000
P        7.43888207       4.44525638       1.40332153      -0.67500000
P       10.32583663       4.42613874       4.44173422      -0.67500000
In       5.89792290      -0.01121639       0.05161291       0.67500000
In       8.87155168       0.00255229       2.94064761       0.67500000
In       5.94464437       3.04162727       2.93904887       0.67500000
In       8.93604412       2.97190226      -0.04009886       0.67500000
P        7.42656910       1.43490036      10.37908609      -0.67500000
P       10.34388199       1.47610203       7.37290892      -0.67500000
P        7.28111391       4.48060572       7.32481684      -0.67500000
P       10.39245503       4.44481374      10.26603566      -0.67500000
In       5.92127300       0.03662010       5.87003510       0.67500000
In       8.86246250      -0.02546270       8.83337137       0.67500000
In       5.99328449       2.95480208       8.89803342       0.67500000
In       8.81692769       3.00076317       5.95733623       0.67500000
P        7.12955761       7.12955759       4.55960436      -0.67500000
P       10.29104740       7.36919815       1.51934462      -0.67500000
P        7.36919816      10.29104740       1.51934457      -0.67500000
P       10.29706884      10.29706878       4.44046795      -0.67500000
In       5.92463075       5.92463073      -0.04481819       0.67500000
In       8.77616542       5.91392378       3.03063918       0.67500000
In       5.91392383       8.77616538       3.03063912       0.67500000
In       8.83264390       8.83264388       0.00399393       0.67500000
P        7.39248763       7.39248746      10.26719494      -0.67500000
P       10.32084515       7.37851146       7.33654428      -0.67500000
P        7.37851158      10.32084504       7.33654423      -0.67500000
P       10.32717992      10.32717975      10.34654503      -0.67500000
In       8.82978786       5.86872431       8.77334679       0.67500000
In       5.86872450       8.82978767       8.77334672       0.67500000
In       8.71486698       8.71486686       5.82871405       0.67500000
63
Lattice="11.8016818 -7.6e-06 -7.6e-06 -7.6e-06 11.8016818 -7.8e-06 -7.6e-06 -7.8e-06 11.8016816" Properties=species:S:1:pos:R:3:mulliken_charges:R:1 virial="-0.001343979365248383 3.847269175329341e-05 3.847269175329341e-05 3.847269175329341e-05 -0.001345261788306826 3.847269175329341e-05 3.847269175329341e-05 3.847269175329341e-05 -0.0013426969421899398" fermi_energy=3.4539138232004998 core_to_fermi_energy=15.43004959127955 config_type=Accurate_Bulk energy=-61123.42433877722 pbc="T T T"
P        1.60819226       1.60819223       4.60810252      -0.67500000
P        4.43090644       1.50127975       1.56647694      -0.67500000
P        1.50127976       4.43090643       1.56647688      -0.67500000
P        5.03653286       5.03653281       4.29268772      -0.67500000
In       0.02044812       0.02044810      -0.02152988       0.67500000
In       2.88675474       0.05692752       3.06507485       0.67500000
In       0.05692755       2.88675469       3.06507479       0.67500000
In       2.98290765       2.98290764       0.05520706       0.67500000
P        1.51755333       1.51755316      10.33000838      -0.67500000
P        4.51623736       1.62148588       7.33535459      -0.67500000
P        1.62148600       4.51623723       7.33535452      -0.67500000
P        4.42271932       4.42271916      10.32359502      -0.67500000
In       0.00026142       0.00026131       5.81789537       0.67500000
In       2.95568430       0.11624855       8.74689232       0.67500000
In       0.11624874       2.95568411       8.74689225       0.67500000
In       3.71368678       3.71368665       6.06089469       0.67500000
P        1.50882558       7.42699105       4.40056491      -0.67500000
P        4.43172434       7.45928575       1.34722640      -0.67500000
P        1.49229728      10.37346360       1.48200956      -0.67500000
P        4.41447638      10.32251725       4.44879032      -0.67500000
In      -0.03306290       5.87270431       0.08565604       0.67500000
In       3.03650290       6.00954112       2.90996218       0.67500000
In      -0.00224520       8.86965998       2.92527702       0.67500000
In       2.96864110       8.96943241      -0.07802361       0.67500000
P        1.38970987       7.44118684      10.41699531      -0.67500000
P        4.44257994       7.24119143       7.32495273      -0.67500000
P        1.45281903      10.35190452       7.37444513      -0.67500000
P        4.44339624      10.41429500      10.22698591      -0.67500000
In       0.05035013       5.91115932       5.85845826       0.67500000
In       2.90965821       6.02400873       8.95771252       0.67500000
In      -0.04751243       8.85650239       8.82864469       0.67500000
In       2.99121942       8.82939669       5.98390609       0.67500000
P        7.42699110       1.50882553       4.40056501      -0.67500000
P       10.37346360       1.49229727       1.48200971      -0.67500000
P        7.45928576       4.43172433       1.34722645      -0.67500000
P       10.32251729       4.41447633       4.44879042      -0.67500000
In       5.87270433      -0.03306292       0.08565614       0.67500000
In       8.86966004      -0.00224527       2.92527718       0.67500000
In       6.00954118       3.03650285       2.90996223       0.67500000
In       8.96943243       2.96864108      -0.07802352       0.67500000
P        7.44118700       1.38970971      10.41699541      -0.67500000
P       10.35190463       1.45281891       7.37444529      -0.67500000
P        7.24119155       4.44257983       7.32495281      -0.67500000
P       10.41429518       4.44339607      10.22698600      -0.67500000
In       5.91115945       0.05035001       5.85845837       0.67500000
In       8.85650255      -0.04751261       8.82864484       0.67500000
In       6.02400891       2.90965804       8.95771258       0.67500000
In       8.82939680       2.99121930       5.98390619       0.67500000
P        6.92382717       6.92382715       4.54155610      -0.67500000
P       10.25784062       7.35253258       1.54149700      -0.67500000
P        7.35253259      10.25784062       1.54149694      -0.67500000
P       10.25265012      10.25265006       4.42938872      -0.67500000
In       5.91830197       5.91830195      -0.06526186       0.67500000
In       8.74749135       5.86820433       3.03060737       0.67500000
In       5.86820438       8.74749132       3.03060731       0.67500000
In       8.81996348       8.81996347      -0.00090377       0.67500000
P        7.38411110       7.38411093      10.25015031      -0.67500000
P       10.31128563       7.34747020       7.32941845      -0.67500000
P        7.34747032      10.31128551       7.32941840      -0.67500000
P       10.31778587      10.31778571      10.34924543      -0.67500000
In       8.80133086       5.84418822       8.75199376       0.67500000
In       5.84418840       8.80133067       8.75199369       0.67500000
In       8.66159392       8.66159379       5.85302408       0.67500000
63
Lattice="11.8016818 -7.6e-06 -7.6e-06 -7.6e-06 11.8016818 -7.8e-06 -7.6e-06 -7.8e-06 11.8016816" Properties=species:S:1:pos:R:3:mulliken_charges:R:1 virial="-0.001343979365248383 3.847269175329341e-05 3.847269175329341e-05 3.847269175329341e-05 -0.001345261788306826 3.847269175329341e-05 3.847269175329341e-05 3.847269175329341e-05 -0.0013426969421899398" fermi_energy=3.4539138232004998 core_to_fermi_energy=15.43004959127955 config_type=Accurate_Bulk energy=-61123.06491293859 pbc="T T T"
P        1.56255219       1.56255218       4.62925901      -0.67500000
P        4.42017812       1.49754544       1.58736314      -0.67500000
P        1.49754544       4.42017811       1.58736308      -0.67500000
P        5.15921786       5.15921781       4.15524836      -0.67500000
In       0.01515167       0.01515165      -0.03280660       0.67500000
In       2.86843238       0.04483770       3.07779647       0.67500000
In       0.04483773       2.86843233       3.07779640       0.67500000
In       2.97521969       2.97521968       0.06759331       0.67500000
P        1.51764682       1.51764665      10.32478790      -0.67500000
P        4.49029067       1.70708694       7.28172685      -0.67500000
P        1.70708706       4.49029054       7.28172678      -0.67500000
P        4.41277723       4.41277706      10.33228045      -0.67500000
In      -0.02945887      -0.02945898       5.82002874       0.67500000
In       2.95966510       0.15330634       8.70986861       0.67500000
In       0.15330653       2.95966491       8.70986855       0.67500000
In       4.20784917       4.20784908       6.30925045       0.67500000
P        1.49834104       7.41856184       4.40594353      -0.67500000
P        4.41602245       7.46674719       1.32856040      -0.67500000
P        1.48482764      10.36756175       1.47722734      -0.67500000
P        4.40523267      10.31848434       4.45874149      -0.67500000
In      -0.05284282       5.85020473       0.09768200       0.67500000
In       3.01794436       6.03698692       2.89222391       0.67500000
In      -0.00525297       8.85504521       2.91923872       0.67500000
In       2.96279670       8.98322007      -0.09586461       0.67500000
P        1.35247817       7.44685426      10.44374262      -0.67500000
P        4.39476659       7.18072998       7.34158959      -0.67500000
P        1.45013451      10.34647210       7.37784401      -0.67500000
P        4.43699536      10.42147544      10.19764284      -0.67500000
In       0.07083157       5.87815479       5.86606016       0.67500000
In       2.84480197       6.01488882       9.00047982       0.67500000
In      -0.05896784       8.85196469       8.82583114       0.67500000
In       2.98196357       8.81465033       5.98703784       0.67500000
P        7.41856189       1.49834099       4.40594363      -0.67500000
P       10.36756175       1.48482763       1.47722748      -0.67500000
P        7.46674720       4.41602244       1.32856044      -0.67500000
P       10.31848438       4.40523262       4.45874158      -0.67500000
In       5.85020475      -0.05284283       0.09768211       0.67500000
In       8.85504527      -0.00525304       2.91923887       0.67500000
In       6.03698699       3.01794430       2.89222396       0.67500000
In       8.98322010       2.96279668      -0.09586452       0.67500000
P        7.44685442       1.35247800      10.44374272      -0.67500000
P       10.34647221       1.45013439       7.37784417      -0.67500000
P        7.18073011       4.39476647       7.34158966      -0.67500000
P       10.42147563       4.43699518      10.19764293      -0.67500000
In       5.87815491       0.07083144       5.86606027       0.67500000
In       8.85196486      -0.05896802       8.82583130       0.67500000
In       6.01488900       2.84480180       9.00047986       0.67500000
In       8.81465045       2.98196346       5.98703794       0.67500000
P        6.84305887       6.84305885       4.49674184      -0.67500000
P       10.24526893       7.34137384       1.54817939      -0.67500000
P        7.34137385      10.24526892       1.54817934      -0.67500000
P       10.24382671      10.24382664       4.40846951      -0.67500000
In       5.90649203       5.90649201      -0.05227938       0.67500000
In       8.74644436       5.84271044       3.02015260       0.67500000
In       5.84271048       8.74644432       3.02015254       0.67500000
In       8.81226725       8.81226723       0.00410955       0.67500000
P        7.37258797       7.37258780      10.25563448      -0.67500000
P       10.30868382       7.32871163       7.32001086      -0.67500000
P        7.32871175      10.30868369       7.32001081      -0.67500000
P       10.30696728      10.30696712      10.34845233      -0.67500000
In       8.77816527       5.83749877       8.74088702       0.67500000
In       5.83749895       8.77816508       8.74088696       0.67500000
In       8.69059290       8.69059277       5.85911596       0.67500000
63
Lattice="11.8016818 -7.6e-06 -7.6e-06 -7.6e-06 11.8016818 -7.8e-06 -7.6e-06 -7.8e-06 11.8016816" Properties=species:S:1:pos:R:3:mulliken_charges:R:1 virial="-0.001343979365248383 3.847269175329341e-05 3.847269175329341e-05 3.847269175329341e-05 -0.001345261788306826 3.847269175329341e-05 3.847269175329341e-05 3.847269175329341e-05 -0.0013426969421899398" fermi_energy=3.4539138232004998 core_to_fermi_energy=15.43004959127955 config_type=Accurate_Bulk energy=-61123.07577574567 pbc="T T T"
P        1.50456391       1.50456390       4.62907747      -0.67500000
P        4.40720100       1.49816959       1.59742877      -0.67500000
P        1.49816958       4.40720100       1.59742871      -0.67500000
P        5.21724191       5.21724187       4.05638997      -0.67500000
In       0.01271575       0.01271573      -0.03741151       0.67500000
In       2.85808898       0.02833722       3.07330428       0.67500000
In       0.02833725       2.85808893       3.07330420       0.67500000
In       2.95971120       2.95971119       0.06442492       0.67500000
P        1.50587601       1.50587584      10.31023919      -0.67500000
P        4.42888986       1.75263326       7.25537627      -0.67500000
P        1.75263349       4.42888974       7.25537616      -0.67500000
P        4.40010612       4.40010595      10.33201139      -0.67500000
In      -0.07262665      -0.07262675       5.85393172       0.67500000
In       2.95961456       0.14714136       8.69084312       0.67500000
In       0.14714160       2.95961438       8.69084302       0.67500000
In       4.75882283       4.75882277       6.48879335       0.67500000
P        1.47265904       7.38742218       4.40799293      -0.67500000
P        4.40479629       7.47745946       1.31215797      -0.67500000
P        1.47784856      10.35447006       1.46930569      -0.67500000
P        4.40107532      10.31681988       4.45913479      -0.67500000
In      -0.06184519       5.82034681       0.10508150       0.67500000
In       3.00981705       6.05217092       2.88006805       0.67500000
In      -0.00743575       8.84770513       2.91908045       0.67500000
In       2.93963600       8.96824434      -0.11805239       0.67500000
P        1.31625259       7.42822972      10.44985517      -0.67500000
P        4.32655432       7.23899201       7.42866046      -0.67500000
P        1.44716696      10.32227966       7.38234118      -0.67500000
P        4.42064658      10.41463781      10.19678903      -0.67500000
In       0.08793628       5.82837075       5.90730695       0.67500000
In       2.77971905       5.96949666       9.01770762       0.67500000
In      -0.07293082       8.84402929       8.82437262       0.67500000
In       2.95011537       8.80860358       5.94582771       0.67500000
P        7.38742222       1.47265898       4.40799304      -0.67500000
P       10.35447005       1.47784854       1.46930583      -0.67500000
P        7.47745949       4.40479628       1.31215802      -0.67500000
P       10.31681992       4.40107528       4.45913489      -0.67500000
In       5.82034683      -0.06184519       0.10508161       0.67500000
In       8.84770518      -0.00743582       2.91908060       0.67500000
In       6.05217097       3.00981700       2.88006812       0.67500000
In       8.96824437       2.93963599      -0.11805231       0.67500000
P        7.42822987       1.31625245      10.44985525      -0.67500000
P       10.32227976       1.44716687       7.38234133      -0.67500000
P        7.23899207       4.32655420       7.42866051      -0.67500000
P       10.41463801       4.42064640      10.19678910      -0.67500000
In       5.82837090       0.08793612       5.90730707       0.67500000
In       8.84402947      -0.07293098       8.82437278       0.67500000
In       5.96949680       2.77971887       9.01770766       0.67500000
In       8.80860368       2.95011526       5.94582781       0.67500000
P        6.90911057       6.90911056       4.40544074      -0.67500000
P       10.25721324       7.33937418       1.53274646      -0.67500000
P        7.33937418      10.25721323       1.53274640      -0.67500000
P       10.22745523      10.22745517       4.40031128      -0.67500000
In       5.89102637       5.89102634      -0.04342694       0.67500000
In       8.77724431       5.83773007       2.98917870       0.67500000
In       5.83773011       8.77724427       2.98917863       0.67500000
In       8.81320243       8.81320241       0.01343783       0.67500000
P        7.36626909       7.36626892      10.28176221      -0.67500000
P       10.30020871       7.32746644       7.30698684      -0.67500000
P        7.32746660      10.30020857       7.30698679      -0.67500000
P       10.30051556      10.30051540      10.34759342      -0.67500000
In       8.79619299       5.86335179       8.77517226       0.67500000
In       5.86335199       8.79619282       8.77517222       0.67500000
In       8.67488605       8.67488590       5.82590962       0.67500000
63
Lattice="11.8016818 -7.6e-06 -7.6e-06 -7.6e-06 11.8016818 -7.8e-06 -7.6e-06 -7.8e-06 11.8016816" Properties=species:S:1:pos:R:3:mulliken_charges:R:1 virial="-0.001343979365248383 3.847269175329341e-05 3.847269175329341e-05 3.847269175329341e-05 -0.001345261788306826 3.847269175329341e-05 3.847269175329341e-05 3.847269175329341e-05 -0.0013426969421899398" fermi_energy=3.4539138232004998 core_to_fermi_energy=15.43004959127955 config_type=Accurate_Bulk energy=-61123.34776954648 pbc="T T T"
P        1.50003750       1.50003750       4.61527454      -0.67500000
P        4.38941748       1.46318984       1.57517625      -0.67500000
P        1.46318983       4.38941748       1.57517619      -0.67500000
P        5.11862162       5.11862159       3.91413263      -0.67500000
In      -0.00137921      -0.00137923      -0.02643884       0.67500000
In       2.85703632       0.00813531       3.07156963       0.67500000
In       0.00813533       2.85703627       3.07156956       0.67500000
In       2.93579807       2.93579806       0.06422090       0.67500000
P        1.48531416       1.48531400      10.31645776      -0.67500000
P        4.35395698       1.66290679       7.24638692      -0.67500000
P        1.66290697       4.35395686       7.24638681      -0.67500000
P        4.38245824       4.38245808      10.34499936      -0.67500000
In      -0.06037757      -0.06037767       5.88980364       0.67500000
In       2.94851375       0.13045465       8.71006085       0.67500000
In       0.13045487       2.94851357       8.71006076       0.67500000
In       5.34191145       5.34191134       6.33660951       0.67500000
P        1.44637529       7.35122490       4.42937974      -0.67500000
P        4.39259337       7.46603507       1.33092472      -0.67500000
P        1.47073893      10.33732503       1.47019090      -0.67500000
P        4.39699190      10.29576832       4.45227292      -0.67500000
In      -0.05514561       5.82508385       0.08257167       0.67500000
In       2.94842451       6.01627878       2.87511444       0.67500000
In      -0.00802153       8.83952678       2.93086626       0.67500000
In       2.93024012       8.93862886      -0.11373012       0.67500000
P        1.34472077       7.38590063      10.41094380      -0.67500000
P        4.29173639       7.32560968       7.50022523      -0.67500000
P        1.44655084      10.31182016       7.38983528      -0.67500000
P        4.40349265      10.41133966      10.22419943      -0.67500000
In       0.03411246       5.80927490       5.94350116       0.67500000
In       2.76980429       5.86903622       8.96733444       0.67500000
In      -0.06372312       8.83650549       8.83338906       0.67500000
In       2.92184867       8.81069694       5.92176800       0.67500000
P        7.35122494       1.44637524       4.42937984      -0.67500000
P       10.33732503       1.47073892       1.47019104      -0.67500000
P        7.46603508       4.39259335       1.33092476      -0.67500000
P       10.29576836       4.39699185       4.45227302      -0.67500000
In       5.82508386      -0.05514561       0.08257178       0.67500000
In       8.83952684      -0.00802160       2.93086641       0.67500000
In       6.01627884       2.94842446       2.87511451       0.67500000
In       8.93862889       2.93024011      -0.11373004       0.67500000
P        7.38590079       1.34472061      10.41094390      -0.67500000
P       10.31182027       1.44655075       7.38983543      -0.67500000
P        7.32560976       4.29173627       7.50022528      -0.67500000
P       10.41133985       4.40349247      10.22419949      -0.67500000
In       5.80927505       0.03411231       5.94350128       0.67500000
In       8.83650567      -0.06372328       8.83338922       0.67500000
In       5.86903638       2.76980411       8.96733450       0.67500000
In       8.81069705       2.92184856       5.92176809       0.67500000
P        7.08037819       7.08037815       4.48104625      -0.67500000
P       10.27300734       7.34090109       1.51682789      -0.67500000
P        7.34090109      10.27300734       1.51682784      -0.67500000
P       10.26107157      10.26107151       4.40516805      -0.67500000
In       5.87719290       5.87719288      -0.02822107       0.67500000
In       8.77622813       5.86448322       2.98541170       0.67500000
In       5.86448327       8.77622809       2.98541164       0.67500000
In       8.81117654       8.81117653       0.01706490       0.67500000
P        7.35823971       7.35823953      10.29841884      -0.67500000
P       10.29119641       7.35149919       7.31920030      -0.67500000
P        7.35149934      10.29119628       7.31920026      -0.67500000
P       10.29411009      10.29410992      10.34797670      -0.67500000
In       8.84660439       5.88205861       8.82554483       0.67500000
In       5.88205880       8.84660422       8.82554479       0.67500000
In       8.69408589       8.69408576       5.77137372       0.67500000
63