63
Lattice="11.8016818 -7.6e-06 -7.6e-06 -7.6e-06 11.8016818 -7.8e-06 -7.6e-06 -7.8e-06 11.8016816" Properties=species:S:1:pos:R:3:mulliken_charges:R:1 virial="-0.001343979365248383 3.847269175329341e-05 3.847269175329341e-05 3.847269175329341e-05 -0.001345261788306826 3.847269175329341e-05 3.847269175329341e-05 3.847269175329341e-05 -0.0013426969421899398" fermi_energy=3.4539138232004998 core_to_fermi_energy=15.43004959127955 config_type=Accurate_Bulk energy=-61124.372695941056 pbc="T T T"
P        1.48691403       1.48691398       4.43353438      -0.67500000
P        4.43353448       1.48691404       1.48691401      -0.67500000
P        1.48691404       4.43353447       1.48691396      -0.67500000
P        4.53571201       4.53571199       4.53571193      -0.67500000
In       0.00000064       0.00000062       0.00000062       0.67500000
In       2.95774561      -0.00013195       2.95774553       0.67500000
In      -0.00013189       2.95774555       2.95774549       0.67500000
In       2.95774561       2.95774559      -0.00013194       0.67500000
P        1.47633381       1.47633364      10.32533792      -0.67500000
P        4.42703071       1.48687515       7.37464031      -0.67500000
P        1.48687525       4.42703060       7.37464026      -0.67500000
P        4.42702670       4.42702654      10.31479096      -0.67500000
In      -0.00000288      -0.00000300       5.90084124       0.67500000
In       2.95774124       0.00012251       8.84393417       0.67500000
In       0.00012269       2.95774107       8.84393413       0.67500000
In       3.00771144       3.00771133       5.86967726       0.67500000
P        1.48687525       7.37464039       4.42703053      -0.67500000
P        4.42703072       7.37464044       1.48687513      -0.67500000
P        1.47633381      10.32533809       1.47633361      -0.67500000
P        4.42702670      10.31479115       4.42702647      -0.67500000
In      -0.00000288       5.90084134      -0.00000300       0.67500000
In       3.00771145       5.86967737       3.00771130       0.67500000
In       0.00012269       8.84393427       2.95774101       0.67500000
In       2.95774125       8.84393431       0.00012251       0.67500000
P        1.48690496       7.36813759      10.31475794      -0.67500000
P        4.53570317       7.26595728       7.26595714      -0.67500000
P        1.48690495      10.31475812       7.36813748      -0.67500000
P        4.43352229      10.31475406      10.31475389      -0.67500000
In      -0.00000734       5.90083735       5.90083725       0.67500000
In       3.00770524       5.93199498       8.79396185       0.67500000
In      -0.00014114       8.84392971       8.84392956       0.67500000
In       3.00770522       8.79396202       5.93199489       0.67500000
P        7.37464044       1.48687520       4.42703064      -0.67500000
P       10.32533810       1.47633380       1.47633376      -0.67500000
P        7.37464044       4.42703072       1.48687518      -0.67500000
P       10.31479119       4.42702664       4.42702658      -0.67500000
In       5.90084135      -0.00000290      -0.00000290       0.67500000
In       8.84393433       0.00012263       2.95774117       0.67500000
In       5.86967742       3.00771141       3.00771136       0.67500000
In       8.84393433       2.95774123       0.00012263       0.67500000
P        7.36813777       1.48690478      10.31475806      -0.67500000
P       10.31475825       1.48690483       7.36813764      -0.67500000
P        7.26595742       4.53570304       7.26595725      -0.67500000
P       10.31475424       4.43352212      10.31475401      -0.67500000
In       5.90083746      -0.00000745       5.90083735       0.67500000
In       8.84392988      -0.00014132       8.84392972       0.67500000
In       5.93199516       3.00770505       8.79396193       0.67500000
In       8.79396215       3.00770510       5.93199501       0.67500000
P        7.26595742       7.26595740       4.53570298      -0.67500000
P       10.31475824       7.36813775       1.48690481      -0.67500000
P        7.36813777      10.31475824       1.48690476      -0.67500000
P       10.31475425      10.31475419       4.43352203      -0.67500000
In       5.90083746       5.90083745      -0.00000745       0.67500000
In       8.79396213       5.93199510       3.00770507       0.67500000
In       5.93199516       8.79396209       3.00770500       0.67500000
In       8.84392988       8.84392986      -0.00014131       0.67500000
P        7.37463221       7.37463205      10.31478681      -0.67500000
P       10.31478709       7.37463211       7.37463197      -0.67500000
P        7.37463221      10.31478699       7.37463192      -0.67500000
P       10.32532603      10.32532586      10.32532569      -0.67500000
In       8.79395695       5.86966784       8.79395668       0.67500000
In       5.86966802       8.79395676       8.79395660       0.67500000
In       8.79395696       8.79395685       5.86966773       0.67500000
63
Lattice="11.8016818 -7.6e-06 -7.6e-06 -7.6e-06 11.8016818 -7.8e-06 -7.6e-06 -7.8e-06 11.8016816" Properties=species:S:1:pos:R:3:mulliken_charges:R:1 virial="-0.001343979365248383 3.847269175329341e-05 3.847269175329341e-05 3.847269175329341e-05 -0.001345261788306826 3.847269175329341e-05 3.847269175329341e-05 3.847269175329341e-05 -0.0013426969421899398" fermi_energy=3.4539138232004998 core_to_fermi_energy=15.43004959127955 config_type=Accurate_Bulk energy=-61124.31196411597 pbc="T T T"
P        1.54664602       1.54664598       4.46420484      -0.67500000
P        4.46420468       1.54664536       1.54664534      -0.67500000
P        1.54664604       4.46420493       1.54664597      -0.67500000
P        4.69705933       4.69706017       4.69706010      -0.67500000
In       0.00422392       0.00422402       0.00422402       0.67500000
In       2.97157417       0.03088415       2.97157426       0.67500000
In       0.03088434       2.97157442       2.97157436       0.67500000
In       2.97157417       2.97157432       0.03088417       0.67500000
P        1.48997080       1.48997056      10.34721153      -0.67500000
P        4.43545455       1.48623155       7.37447433      -0.67500000
P        1.48623079       4.43545430       7.37447429      -0.67500000
P        4.42308083       4.42308076      10.30877120      -0.67500000
In       0.03611723       0.03611676       5.90292654       0.67500000
In       2.96439167       0.01113569       8.85782356       0.67500000
In       0.01113555       2.96439096       8.85782356       0.67500000
In       3.09602043       3.09602083       5.88115424       0.67500000
P        1.48623079       7.37447443       4.43545423      -0.67500000
P        4.43545455       7.37447447       1.48623152      -0.67500000
P        1.48997080      10.34721170       1.48997053      -0.67500000
P        4.42308083      10.30877138       4.42308069      -0.67500000
In       0.03611724       5.90292664       0.03611677       0.67500000
In       3.09602045       5.88115437       3.09602080       0.67500000
In       0.01113555       8.85782371       2.96439091       0.67500000
In       2.96439167       8.85782370       0.01113566       0.67500000
P        1.48802547       7.38319207      10.32819455      -0.67500000
P        4.51596187       7.26642105       7.26642091      -0.67500000
P        1.48802547      10.32819474       7.38319195      -0.67500000
P        4.44813746      10.33551170      10.33551152      -0.67500000
In      -0.01294096       5.89940371       5.89940360       0.67500000
In       2.99167212       5.93961908       8.80482513       0.67500000
In      -0.00578212       8.84317888       8.84317872       0.67500000
In       2.99167211       8.80482531       5.93961899       0.67500000
P        7.37447409       1.48623156       4.43545453      -0.67500000
P       10.34721185       1.48997096       1.48997093      -0.67500000
P        7.37447408       4.43545460       1.48623152      -0.67500000
P       10.30877124       4.42308090       4.42308083      -0.67500000
In       5.90292650       0.03611621       0.03611621       0.67500000
In       8.85782363       0.01113611       2.96439151       0.67500000
In       5.88115337       3.09602051       3.09602046       0.67500000
In       8.85782363       2.96439156       0.01113609       0.67500000
P        7.38319242       1.48802491      10.32819492      -0.67500000
P       10.32819485       1.48802479       7.38319202      -0.67500000
P        7.26642307       4.51596195       7.26642314      -0.67500000
P       10.33551295       4.44813691      10.33551283      -0.67500000
In       5.89940358      -0.01294064       5.89940369       0.67500000
In       8.84317892      -0.00578270       8.84317885       0.67500000
In       5.93961972       2.99167203       8.80482578       0.67500000
In       8.80482560       2.99167221       5.93961954       0.67500000
P        7.26642304       7.26642325       4.51596189      -0.67500000
P       10.32819484       7.38319214       1.48802478      -0.67500000
P        7.38319242      10.32819510       1.48802490      -0.67500000
P       10.33551294      10.33551300       4.44813683      -0.67500000
In       5.89940358       5.89940380      -0.01294065       0.67500000
In       8.80482558       5.93961962       2.99167217       0.67500000
In       5.93961972       8.80482593       2.99167198       0.67500000
In       8.84317891       8.84317900      -0.00578269       0.67500000
P        7.37344081       7.37344067      10.30587372      -0.67500000
P       10.30587410       7.37344102       7.37344089      -0.67500000
P        7.37344080      10.30587390       7.37344054      -0.67500000
P       10.32830988      10.32830961      10.32830944      -0.67500000
In       8.79395618       5.85707880       8.79395594       0.67500000
In       5.85707885       8.79395417       8.79395401       0.67500000
In       8.79395616       8.79395609       5.85707869       0.67500000
63
Lattice="11.8016818 -7.6e-06 -7.6e-06 -7.6e-06 11.8016818 -7.8e-06 -7.6e-06 -7.8e-06 11.8016816" Properties=species:S:1:pos:R:3:mulliken_charges:R:1 virial="-0.001343979365248383 3.847269175329341e-05 3.847269175329341e-05 3.847269175329341e-05 -0.001345261788306826 3.847269175329341e-05 3.847269175329341e-05 3.847269175329341e-05 -0.0013426969421899398" fermi_energy=3.4539138232004998 core_to_fermi_energy=15.43004959127955 config_type=Accurate_Bulk energy=-61124.10539745381 pbc="T T T"
P        1.57971136       1.57971143       4.47958144      -0.67500000
P        4.47957723       1.57970350       1.57970348      -0.67500000
P        1.57971147       4.47958159       1.57971153      -0.67500000
P        4.88362477       4.88364627       4.88364591      -0.67500000
In      -0.00048688      -0.00048602      -0.00048603       0.67500000
In       2.96818801       0.04211983       2.96819066       0.67500000
In       0.04212153       2.96819074       2.96819065       0.67500000
In       2.96818801       2.96819075       0.04211986       0.67500000
P        1.48866253       1.48866254      10.34842632      -0.67500000
P        4.43496747       1.47952496       7.36535626      -0.67500000
P        1.47951744       4.43496606       7.36535695      -0.67500000
P        4.41277105       4.41277098      10.29956159      -0.67500000
In       0.04184021       0.04183701       5.88838910       0.67500000
In       2.96038537       0.01022423       8.85369238       0.67500000
In       0.01022159       2.96038210       8.85369309       0.67500000
In       3.17086835       3.17087337       5.88142987       0.67500000
P        1.47951746       7.36535710       4.43496597      -0.67500000
P        4.43496744       7.36535642       1.47952484      -0.67500000
P        1.48866251      10.34842648       1.48866248      -0.67500000
P        4.41277104      10.29956178       4.41277090      -0.67500000
In       0.04184030       5.88838922       0.04183713       0.67500000
In       3.17086848       5.88143009       3.17087338       0.67500000
In       0.01022158       8.85369324       2.96038205       0.67500000
In       2.96038533       8.85369253       0.01022417       0.67500000
P        1.48291812       7.37960078      10.32668803      -0.67500000
P        4.50749203       7.21967642       7.21967626      -0.67500000
P        1.48291813      10.32668824       7.37960069      -0.67500000
P        4.44795827      10.32493830      10.32493812      -0.67500000
In      -0.03100110       5.89279716       5.89279703       0.67500000
In       2.97896304       5.93571719       8.80234686       0.67500000
In      -0.01179271       8.83760057       8.83760042       0.67500000
In       2.97896301       8.80234705       5.93571710       0.67500000
P        7.36535524       1.47952379       4.43496888      -0.67500000
P       10.34842732       1.48866403       1.48866399      -0.67500000
P        7.36535525       4.43496893       1.47952366      -0.67500000
P       10.29956081       4.41277155       4.41277148      -0.67500000
In       5.88838810       0.04183138       0.04183142       0.67500000
In       8.85369297       0.01022485       2.96038514       0.67500000
In       5.88142294       3.17086469       3.17086457       0.67500000
In       8.85369298       2.96038515       0.01022480       0.67500000
P        7.37960243       1.48291472      10.32669048      -0.67500000
P       10.32668925       1.48291377       7.37960052      -0.67500000
P        7.21969363       4.50749326       7.21969571      -0.67500000
P       10.32494657       4.44795684      10.32494644      -0.67500000
In       5.89279546      -0.03099858       5.89279730       0.67500000
In       8.83760022      -0.01179502       8.83760049       0.67500000
In       5.93572205       2.97896307       8.80235164       0.67500000
In       8.80234965       2.97896550       5.93572233       0.67500000
P        7.21969337       7.21969560       4.50749318      -0.67500000
P       10.32668921       7.37960061       1.48291379      -0.67500000
P        7.37960243      10.32669065       1.48291476      -0.67500000
P       10.32494645      10.32494652       4.44795678      -0.67500000
In       5.89279545       5.89279743      -0.03099862       0.67500000
In       8.80234958       5.93572236       2.97896545       0.67500000
In       5.93572198       8.80235176       2.97896299       0.67500000
In       8.83760022       8.83760064      -0.01179499       0.67500000
P        7.36743721       7.36743628      10.29234690      -0.67500000
P       10.29234747       7.36743855       7.36743843      -0.67500000
P        7.36743718      10.29234708       7.36743613      -0.67500000
P       10.32379845      10.32379770      10.32379753      -0.67500000
In       8.76453858       5.84349101       8.76453801       0.67500000
In       5.84349195       8.76452576       8.76452560       0.67500000
In       8.76453841       8.76453800       5.84349090       0.67500000
63
Lattice="11.8016818 -7.6e-06 -7.6e-06 -7.6e-06 11.8016818 -7.8e-06 -7.6e-06 -7.8e-06 11.8016816" Properties=species:S:1:pos:R:3:mulliken_charges:R:1 virial="-0.001343979365248383 3.847269175329341e-05 3.847269175329341e-05 3.847269175329341e-05 -0.001345261788306826 3.847269175329341e-05 3.847269175329341e-05 3.847269175329341e-05 -0.0013426969421899398" fermi_energy=3.4539138232004998 core_to_fermi_energy=15.43004959127955 config_type=Accurate_Bulk energy=-61123.73729407529 pbc="T T T"
P        1.58310918       1.58310887       4.48273930      -0.67500000
P        4.48271818       1.58307030       1.58307029      -0.67500000
P        1.58310974       4.48273968       1.58310942      -0.67500000
P        5.08414976       5.08433440       5.08433176      -0.67500000
In      -0.00290524      -0.00290258      -0.00290262       0.67500000
In       2.96355515       0.04663206       2.96356804       0.67500000
In       0.04663895       2.96356521       2.96356498       0.67500000
In       2.96355511       2.96356823       0.04663217       0.67500000
P        1.48702479       1.48702647      10.34593872      -0.67500000
P        4.43825637       1.47396854       7.35857151      -0.67500000
P        1.47394353       4.43825181       7.35857429      -0.67500000
P        4.40712507       4.40712369      10.29538632      -0.67500000
In       0.03503533       0.03502472       5.88288353       0.67500000
In       2.95715436       0.01060022       8.85089028       0.67500000
In       0.01059191       2.95714893       8.85089168       0.67500000
In       3.19457613       3.19459252       5.89307352       0.67500000
P        1.47394362       7.35857440       4.43825163      -0.67500000
P        4.43825620       7.35857166       1.47396826      -0.67500000
P        1.48702475      10.34593886       1.48702637      -0.67500000
P        4.40712505      10.29538655       4.40712362      -0.67500000
In       0.03503560       5.88288366       0.03502513       0.67500000
In       3.19457738       5.89307378       3.19459350       0.67500000
In       0.01059198       8.85089177       2.95714887       0.67500000
In       2.95715428       8.85089039       0.01060016       0.67500000
P        1.48694301       7.37385356      10.32105784      -0.67500000
P        4.52260530       7.17122248       7.17122220      -0.67500000
P        1.48694306      10.32105807       7.37385349      -0.67500000
P        4.44560143      10.31201632      10.31201616      -0.67500000
In      -0.04666910       5.88922760       5.88922741       0.67500000
In       2.98013497       5.92732418       8.79423550       0.67500000
In      -0.00803369       8.83813326       8.83813309       0.67500000
In       2.98013483       8.79423570       5.92732404       0.67500000
P        7.35857366       1.47396171       4.43826426      -0.67500000
P       10.34594072       1.48702932       1.48702925      -0.67500000
P        7.35857369       4.43826427       1.47396133      -0.67500000
P       10.29538282       4.40712532       4.40712527      -0.67500000
In       5.88288140       0.03500613       0.03500627       0.67500000
In       8.85089485       0.01059544       2.95715470       0.67500000
In       5.89306485       3.19450459       3.19450432       0.67500000
In       8.85089486       2.95715468       0.01059531       0.67500000
P        7.37385690       1.48693216      10.32106690      -0.67500000
P       10.32106413       1.48692893       7.37385323      -0.67500000
P        7.17129669       4.52261082       7.17130697      -0.67500000
P       10.31204038       4.44560118      10.31203870      -0.67500000
In       5.88922130      -0.04665954       5.88922789       0.67500000
In       8.83813216      -0.00803763       8.83813320       0.67500000
In       5.92734567       2.98013744       8.79424852       0.67500000
In       8.79424584       2.98014769       5.92734960       0.67500000
P        7.17129552       7.17130607       4.52261068      -0.67500000
P       10.32106400       7.37385330       1.48692906      -0.67500000
P        7.37385691      10.32106700       1.48693233      -0.67500000
P       10.31204007      10.31203856       4.44560110      -0.67500000
In       5.88922129       5.88922809      -0.04665968       0.67500000
In       8.79424565       5.92734940       2.98014760       0.67500000
In       5.92734532       8.79424854       2.98013721       0.67500000
In       8.83813216       8.83813336      -0.00803757       0.67500000
P        7.36759735       7.36759133      10.29162150      -0.67500000
P       10.29162031       7.36760008       7.36760002      -0.67500000
P        7.36759723      10.29162170       7.36759115      -0.67500000
P       10.32226586      10.32226468      10.32226452      -0.67500000
In       8.75224309       5.85060693       8.75224079       0.67500000
In       5.85062096       8.75221244       8.75221231       0.67500000
In       8.75224270       8.75224053       5.85060701       0.67500000
63
Lattice="11.8016818 -7.6e-06 -7.6e-06 -7.6e-06 11.8016818 -7.8e-06 -7.6e-06 -7.8e-06 11.8016816" Properties=species:S:1:pos:R:3:mulliken_charges:R:1 virial="-0.001343979365248383 3.847269175329341e-05 3.847269175329341e-05 3.847269175329341e-05 -0.001345261788306826 3.847269175329341e-05 3.847269175329341e-05 3.847269175329341e-05 -0.0013426969421899398" fermi_energy=3.4539138232004998 core_to_fermi_energy=15.43004959127955 config_type=Accurate_Bulk energy=-61123.35685782041 pbc="T T T"
P        1.57198556       1.57198404       4.47837395      -0.67500000
P        4.47834024       1.57192218       1.57192219      -0.67500000
P        1.57198644       4.47837451       1.57198494      -0.67500000
P        5.28125714       5.28167079       5.28166497      -0.67500000
In      -0.00350843      -0.00350493      -0.00350498       0.67500000
In       2.96169298       0.04691115       2.96171291       0.67500000
In       0.04692475       2.96170915       2.96170881       0.67500000
In       2.96169292       2.96171319       0.04691136       0.67500000
P        1.48658363       1.48658571      10.34440408      -0.67500000
P        4.44176864       1.47423327       7.35437824      -0.67500000
P        1.47420271       4.44176337       7.35437801      -0.67500000
P        4.40668422       4.40668174      10.29576088      -0.67500000
In       0.03023322       0.03021791       5.88262365       0.67500000
In       2.95587885       0.01080639       8.85096458       0.67500000
In       0.01079665       2.95587445       8.85096528       0.67500000
In       3.16664592       3.16666269       5.90105483       0.67500000
P        1.47420281       7.35437809       4.44176314      -0.67500000
P        4.44176841       7.35437832       1.47423292      -0.67500000
P        1.48658359      10.34440420       1.48658560      -0.67500000
P        4.40668420      10.29576119       4.40668168      -0.67500000
In       0.03023356       5.88262378       0.03021846       0.67500000
In       3.16664864       5.90105496       3.16666513       0.67500000
In       0.01079678       8.85096533       2.95587438       0.67500000
In       2.95587878       8.85096464       0.01080637       0.67500000
P        1.49133108       7.37155210      10.31656846      -0.67500000
P        4.53587930       7.13533015       7.13532972      -0.67500000
P        1.49133114      10.31656867       7.37155202      -0.67500000
P        4.44456412      10.30470258      10.30470243      -0.67500000
In      -0.05175847       5.88790254       5.88790232       0.67500000
In       2.98451174       5.91919026       8.78742598       0.67500000
In      -0.00682954       8.83921108       8.83921090       0.67500000
In       2.98451158       8.78742610       5.91919007       0.67500000
P        7.35438263       1.47422585       4.44178007      -0.67500000
P       10.34440737       1.48658925       1.48658918      -0.67500000
P        7.35438262       4.44178008       1.47422540      -0.67500000
P       10.29575140       4.40668361       4.40668358      -0.67500000
In       5.88262147       0.03019362       0.03019383       0.67500000
In       8.85097197       0.01079721       2.95587980       0.67500000
In       5.90105470       3.16647128       3.16647100       0.67500000
In       8.85097197       2.95587980       0.01079705       0.67500000
P        7.37155491       1.49131333      10.31658308      -0.67500000
P       10.31658134       1.49130850       7.37155149      -0.67500000
P        7.13546842       4.53588547       7.13548976      -0.67500000
P       10.30473682       4.44456609      10.30473371      -0.67500000
In       5.88789292      -0.05173062       5.88790115       0.67500000
In       8.83920913      -0.00683412       8.83921046       0.67500000
In       5.91922948       2.98451951       8.78743990       0.67500000
In       8.78744264       2.98453140       5.91923647       0.67500000
P        7.13546620       7.13548797       4.53588532      -0.67500000
P       10.31658113       7.37155157       1.49130872      -0.67500000
P        7.37155492      10.31658309       1.49131362      -0.67500000
P       10.30473639      10.30473342       4.44456597      -0.67500000
In       5.88789294       5.88790139      -0.05173102       0.67500000
In       8.78744245       5.91923602       2.98453125       0.67500000
In       5.91922885       8.78743982       2.98451919       0.67500000
In       8.83920913       8.83921064      -0.00683405       0.67500000
P        7.36667441       7.36666371      10.29289712      -0.67500000
P       10.29289499       7.36667964       7.36667966      -0.67500000
P        7.36667420      10.29289734       7.36666350      -0.67500000
P       10.32212970      10.32212836      10.32212821      -0.67500000
In       8.74881273       5.85949851       8.74880957       0.67500000
In       5.85953202       8.74877921       8.74877909       0.67500000
In       8.74881231       8.74880927       5.85949885       0.67500000
63
Lattice="11.8016818 -7.6e-06 -7.6e-06 -7.6e-06 11.8016818 -7.8e-06 -7.6e-06 -7.8e-06 11.8016816" Properties=species:S:1:pos:R:3:mulliken_charges:R:1 virial="-0.001343979365248383 3.847269175329341e-05 3.847269175329341e-05 3.847269175329341e-05 -0.001345261788306826 3.847269175329341e-05 3.847269175329341e-05 3.847269175329341e-05 -0.0013426969421899398" fermi_energy=3.4539138232004998 core_to_fermi_energy=15.43004959127955 config_type=Accurate_Bulk energy=-61124.251630101666 pbc="T T T"
P        1.54431455       1.54431372       4.46314713      -0.67500000
P        4.46312507       1.54427710       1.54427709      -0.67500000
P        1.54431508       4.46314753       1.54431425      -0.67500000
P        5.59579586       5.59594583       5.59594363      -0.67500000
In      -0.00433515      -0.00433314      -0.00433317       0.67500000
In       2.95606547       0.03611329       2.95607912       0.67500000
In       0.03612249       2.95607651       2.95607626       0.67500000
In       2.95606543       2.95607933       0.03611344       0.67500000
P        1.48385176       1.48385162      10.33909809      -0.67500000
P        4.43768384       1.47929210       7.35022957      -0.67500000
P        1.47927675       4.43767973       7.35022559      -0.67500000
P        4.40983772       4.40983407      10.30445455      -0.67500000
In       0.01960585       0.01959633       5.88604052       0.67500000
In       2.95390279       0.00581089       8.85042663       0.67500000
In       0.00580729       2.95389686       8.85042789       0.67500000
In       3.10171240       3.10171977       5.86473440       0.67500000
P        1.47927685       7.35022570       4.43767963      -0.67500000
P        4.43768375       7.35022961       1.47929196      -0.67500000
P        1.48385171      10.33909820       1.48385154      -0.67500000
P        4.40983768      10.30445482       4.40983401      -0.67500000
In       0.01960609       5.88604065       0.01959670       0.67500000
In       3.10171385       5.86473436       3.10172108       0.67500000
In       0.00580734       8.85042795       2.95389682       0.67500000
In       2.95390272       8.85042670       0.00581086       0.67500000
P        1.49663411       7.36897318      10.30788540      -0.67500000
P        4.56870113       7.11697806       7.11697764      -0.67500000
P        1.49663414      10.30788561       7.36897311      -0.67500000
P        4.44329089      10.29339868      10.29339855      -0.67500000
In      -0.03273218       5.88810079       5.88810058       0.67500000
In       2.98532717       5.90334354       8.78846375       0.67500000
In      -0.00541874       8.84030991       8.84030976       0.67500000
In       2.98532707       8.78846393       5.90334342       0.67500000
P        7.35023253       1.47928414       4.43768650      -0.67500000
P       10.33910209       1.48385508       1.48385504      -0.67500000
P        7.35023247       4.43768652       1.47928389      -0.67500000
P       10.30444769       4.40983696       4.40983694      -0.67500000
In       5.88603829       0.01957930       0.01957943       0.67500000
In       8.85043346       0.00580788       2.95390204       0.67500000
In       5.86474652       3.10161828       3.10161814       0.67500000
In       8.85043347       2.95390202       0.00580782       0.67500000
P        7.36897616       1.49662415      10.30789250      -0.67500000
P       10.30789123       1.49662218       7.36897272      -0.67500000
P        7.11698033       4.56873184       7.11700190      -0.67500000
P       10.29342044       4.44329091      10.29341637      -0.67500000
In       5.88809459      -0.03272178       5.88810140       0.67500000
In       8.84030981      -0.00542406       8.84030955       0.67500000
In       5.90336732       2.98533619       8.78846487       0.67500000
In       8.78846325       2.98534353       5.90336952       0.67500000
P        7.11698000       7.11700200       4.56873134      -0.67500000
P       10.30789113       7.36897280       1.49662230      -0.67500000
P        7.36897617      10.30789261       1.49662430      -0.67500000
P       10.29342019      10.29341625       4.44329083      -0.67500000
In       5.88809458       5.88810159      -0.03272193       0.67500000
In       8.78846323       5.90336928       2.98534335       0.67500000
In       5.90336696       8.78846503       2.98533591       0.67500000
In       8.84030981       8.84030970      -0.00542398       0.67500000
P        7.36325555       7.36324801      10.30013358      -0.67500000
P       10.30013193       7.36325769       7.36325766      -0.67500000
P        7.36325542      10.30013379       7.36324784      -0.67500000
P       10.32143434      10.32143263      10.32143248      -0.67500000
In       8.75256758       5.87731014       8.75256608       0.67500000
In       5.87733056       8.75255586       8.75255571       0.67500000
In       8.75256744       8.75256608       5.87731031       0.67500000
63