65
Lattice="11.801682 -8e-06 -8e-06 -8e-06 11.801682 -8e-06 -8e-06 -8e-06 11.801682" Properties=species:S:1:pos:R:3:mulliken_charges:R:1:hirshfeld_charges:R:1 fermi_energy=3.718544537463 core_to_fermi_energy=15.690571930710242 config_type=Interstitial energy=-63090.24943036986 pbc="T T T"
P        1.39828854       1.38193277       4.40343523      -0.64200000      -0.23000000
P        4.46290894       1.35760073       1.35760073      -0.45200000      -0.16000000
P        1.39828854       4.40343523       1.38193277      -0.64200000      -0.23000000
P        3.95540965       5.16022670       5.16022670      -0.66200000      -0.24000000
P        1.46428310       1.45620475      10.31572708      -0.64200000      -0.23000000
P        4.41154614       1.46133587       7.34452271      -0.67600000      -0.24000000
P        1.39827596       4.40243108       7.42393745      -0.67400000      -0.24000000
P        4.41302584       4.40292437      10.30376959      -0.67200000      -0.23000000
P        1.39827596       7.42393745       4.40243108      -0.67400000      -0.24000000
P        4.41154614       7.34452271       1.46133587      -0.67600000      -0.24000000
P        1.46428310      10.31572708       1.45620475      -0.64200000      -0.23000000
P        4.41302584      10.30376959       4.40292437      -0.67200000      -0.23000000
P        1.46427642       7.34965123      10.29182049      -0.67400000      -0.24000000
P        4.46289371       7.44824775       7.44824775      -0.68100000      -0.24000000
P        1.46427642      10.29182049       7.34965123      -0.67400000      -0.24000000
P        4.35988937      10.30376308      10.30376308      -0.66200000      -0.24000000
P        7.42278529       1.41730662       4.42988273      -0.67600000      -0.24000000
P       10.31551373       1.44486839       1.44486839      -0.67700000      -0.24000000
P        7.42278529       4.42988273       1.41730662      -0.67600000      -0.24000000
P       10.35430387       4.40292494       4.40292494      -0.67400000      -0.24000000
P        7.36407633       1.44336903      10.29154965      -0.67600000      -0.24000000
P       10.32588641       1.44247287       7.36337666      -0.68000000      -0.24000000
P        7.42277441       4.37597014       7.38854108      -0.67500000      -0.24000000
P       10.27826187       4.40292131      10.30376552      -0.67600000      -0.24000000
P        7.42277441       7.38854108       4.37597014      -0.67500000      -0.24000000
P       10.32588641       7.36337666       1.44247287      -0.68000000      -0.24000000
P        7.36407633      10.29154965       1.44336903      -0.67600000      -0.24000000
P       10.27826187      10.30376552       4.40292131      -0.67600000      -0.24000000
P        7.36406899       7.36247474      10.31598366      -0.67500000      -0.24000000
P       10.31550031       7.36098317       7.36098317      -0.67500000      -0.24000000
P        7.36406899      10.31598366       7.36247474      -0.67500000      -0.24000000
P       10.31299135      10.30376200      10.30376200      -0.67400000      -0.24000000
In      -0.00617695      -0.02807778      -0.02807778       0.67600000       0.24000000
In       2.96285206      -0.00428025       2.91251611       0.73400000       0.26000000
In       0.00427006       2.91320529       2.91320529       0.67600000       0.24000000
In       2.96285206       2.91251611      -0.00428025       0.73400000       0.26000000
In      -0.04748557      -0.07236249       5.88757920       0.65600000       0.23000000
In       2.91918039      -0.00878553       8.81464966       0.68200000       0.25000000
In      -0.04749151       2.91828427       8.87823279       0.65600000       0.23000000
In       2.78775886       2.84216073       5.96371194       0.68200000       0.25000000
In      -0.04748557       5.88757920      -0.07236249       0.65600000       0.23000000
In       2.78775886       5.96371194       2.84216073       0.68200000       0.25000000
In      -0.04749151       8.87823279       2.91828427       0.65600000       0.23000000
In       2.91918039       8.81464966      -0.00878553       0.68200000       0.25000000
In       0.00425956       5.89266426       5.89266426       0.68000000       0.24000000
In       2.96283907       5.89334770       8.81014848       0.68600000       0.24000000
In      -0.00619042       8.83394408       8.83394408       0.68000000       0.24000000
In       2.96283907       8.81014848       5.89334770       0.68600000       0.24000000
In       5.90257586      -0.09206996      -0.09206996       0.63300000       0.22000000
In       8.84888694      -0.03702930       2.90682797       0.68600000       0.24000000
In       6.09055048       2.76844753       2.76844753       0.63300000       0.22000000
In       8.84888694       2.90682797      -0.03702930       0.68600000       0.24000000
In       5.88109118      -0.02790247       5.87755331       0.68700000       0.24000000
In       8.84478392      -0.01841650       8.82426739       0.67800000       0.24000000
In       5.88108841       2.92830340       8.83376128       0.68700000       0.24000000
In       8.88999665       2.93216031       5.87369435       0.67800000       0.24000000
In       5.88109118       5.87755331      -0.02790247       0.68700000       0.24000000
In       8.88999665       5.87369435       2.93216031       0.67800000       0.24000000
In       5.88108841       8.83376128       2.92830340       0.68700000       0.24000000
In       8.84478392       8.82426739      -0.01841650       0.67800000       0.24000000
In       6.09052745       6.03739937       6.03739937       0.66100000       0.23000000
In       8.84887432       5.89902314       8.84288137       0.67900000       0.24000000
In       5.90255961       8.89792014       8.89792014       0.66100000       0.23000000
In       8.84887432       8.84288137       5.89902314       0.67900000       0.24000000
P        3.95541824       3.64559774       3.64559774      -0.45200000      -0.16000000
65
Lattice="11.801682 -8e-06 -8e-06 -8e-06 11.801682 -8e-06 -8e-06 -8e-06 11.801682" Properties=species:S:1:pos:R:3:mulliken_charges:R:1:hirshfeld_charges:R:1 fermi_energy=3.718544537463 core_to_fermi_energy=15.690571930710242 config_type=Interstitial energy=-63090.24054544237 pbc="T T T"
P        1.42424661       1.36124952       4.36986389      -0.64200000      -0.23000000
P        4.48188171       1.28180571       1.28088177      -0.45200000      -0.16000000
P        1.42424661       4.37078784       1.36032557      -0.64200000      -0.23000000
P        3.94189025       5.01750198       5.01657804      -0.66200000      -0.24000000
P        1.46798362       1.41953754      10.28012651      -0.64200000      -0.23000000
P        4.41130311       1.42002243       7.30674022      -0.67600000      -0.24000000
P        1.37842864       4.37500203       7.40023549      -0.67400000      -0.24000000
P        4.41308843       4.35945736      10.26023271      -0.67200000      -0.23000000
P        1.37842864       7.40115944       4.37407808      -0.67400000      -0.24000000
P        4.41130311       7.30766417       1.41909848      -0.67600000      -0.24000000
P        1.46798362      10.28105046       1.41861359      -0.64200000      -0.23000000
P        4.41308843      10.26115666       4.35853341      -0.67200000      -0.23000000
P        1.45606012       7.31464742      10.25969686      -0.67400000      -0.24000000
P        4.44144327       7.37458460       7.37366065      -0.68100000      -0.24000000
P        1.45606012      10.26062081       7.31372347      -0.67400000      -0.24000000
P        4.36323749      10.24097130      10.24004735      -0.66200000      -0.24000000
P        7.43912143       1.36253449       4.38378405      -0.67600000      -0.24000000
P       10.33133088       1.41008865       1.40916471      -0.67700000      -0.24000000
P        7.43912143       4.38470800       1.36161055      -0.67600000      -0.24000000
P       10.35388254       4.36189896       4.36097501      -0.67400000      -0.24000000
P        7.37501167       1.39745825      10.24138739      -0.67600000      -0.24000000
P       10.32621370       1.39819551       7.31649726      -0.68000000      -0.24000000
P        7.40661704       4.33364088       7.33161582      -0.67500000      -0.24000000
P       10.27945492       4.36345491      10.25884146      -0.67600000      -0.24000000
P        7.40661704       7.33253977       4.33271693      -0.67500000      -0.24000000
P       10.32621370       7.31742121       1.39727156      -0.68000000      -0.24000000
P        7.37501167      10.24231134       1.39653430      -0.67600000      -0.24000000
P       10.27945492      10.25976541       4.36253096      -0.67600000      -0.24000000
P        7.35253716       7.31436701      10.26807222      -0.67500000      -0.24000000
P       10.29971848       7.32504487       7.32412092      -0.67500000      -0.24000000
P        7.35253716      10.26899617       7.31344306      -0.67500000      -0.24000000
P       10.31097519      10.26355855      10.26263460      -0.67400000      -0.24000000
In      -0.00372674      -0.06911673      -0.07004068       0.67600000       0.24000000
In       2.97616086      -0.03568391       2.86949206       0.73400000       0.26000000
In       0.02296685       2.88163151       2.88070756       0.67600000       0.24000000
In       2.97616086       2.87041601      -0.03660786       0.73400000       0.26000000
In      -0.04010022      -0.10303514       5.83237035       0.65600000       0.23000000
In       2.91927415      -0.04884639       8.77867784       0.68200000       0.25000000
In      -0.05268541       2.86911693       8.84056237       0.65600000       0.23000000
In       2.78443798       2.82337583       5.95379544       0.68200000       0.25000000
In      -0.04010022       5.83329430      -0.10395909       0.65600000       0.23000000
In       2.78443798       5.95471939       2.82245188       0.68200000       0.25000000
In      -0.05268541       8.84148632       2.86819298       0.65600000       0.23000000
In       2.91927415       8.77960179      -0.04977034       0.68200000       0.25000000
In      -0.01460389       5.85931185       5.85838790       0.68000000       0.24000000
In       2.94940282       5.85626027       8.78444527       0.68600000       0.24000000
In      -0.01238038       8.79292279       8.79199884       0.68000000       0.24000000
In       2.94940282       8.78536922       5.85533632       0.68600000       0.24000000
In       5.92171138      -0.16440987      -0.16533382       0.63300000       0.22000000
In       8.86294304      -0.08476910       2.85616397       0.68600000       0.24000000
In       6.12992355       2.68954614       2.68862219       0.63300000       0.22000000
In       8.86294304       2.85708792      -0.08569305       0.68600000       0.24000000
In       5.87712496      -0.06535193       5.82848246       0.68700000       0.24000000
In       8.84448369      -0.06978047       8.77062024       0.67800000       0.24000000
In       5.88509592       2.88353896       8.79210630       0.68700000       0.24000000
In       8.88905443       2.89124635       5.83195087       0.67800000       0.24000000
In       5.87712496       5.82940641      -0.06627587       0.68700000       0.24000000
In       8.88905443       5.83287482       2.89032240       0.67800000       0.24000000
In       5.88509592       8.79303025       2.88261501       0.68700000       0.24000000
In       8.84448369       8.77154419      -0.07070442       0.67800000       0.24000000
In       6.04454989       5.95575456       5.95483061       0.66100000       0.23000000
In       8.83574968       5.85026047       8.79609277       0.67900000       0.24000000
In       5.88806419       8.82354570       8.82262175       0.66100000       0.23000000
In       8.83574968       8.79701672       5.84933652       0.67900000       0.24000000
P        3.96289103       3.50572477       3.50480082      -0.45200000      -0.16000000
65
Lattice="11.801682 -8e-06 -8e-06 -8e-06 11.801682 -8e-06 -8e-06 -8e-06 11.801682" Properties=species:S:1:pos:R:3:mulliken_charges:R:1:hirshfeld_charges:R:1 fermi_energy=3.718544537463 core_to_fermi_energy=15.690571930710242 config_type=Interstitial energy=-63090.05957802687 pbc="T T T"
P        1.45462003       1.39142951       4.36690850      -0.64200000      -0.23000000
P        4.44042349       1.21773445       1.21657233      -0.45200000      -0.16000000
P        1.45462003       4.36807062       1.39026739      -0.64200000      -0.23000000
P        3.97768604       4.76431532       4.76315321      -0.66200000      -0.24000000
P        1.44364405       1.40576732      10.25516032      -0.64200000      -0.23000000
P        4.40558418       1.41971056       7.31133509      -0.67600000      -0.24000000
P        1.37726908       4.39890162       7.39666299      -0.67400000      -0.24000000
P        4.40389152       4.35466686      10.25943574      -0.67200000      -0.23000000
P        1.37726908       7.39782511       4.39773950      -0.67400000      -0.24000000
P        4.40558418       7.31249721       1.41854844      -0.67600000      -0.24000000
P        1.44364405      10.25632244       1.40460521      -0.64200000      -0.23000000
P        4.40389152      10.26059786       4.35350475      -0.67200000      -0.23000000
P        1.44597732       7.32208831      10.26810695      -0.67400000      -0.24000000
P        4.41959293       7.31056083       7.30939871      -0.68100000      -0.24000000
P        1.44597732      10.26926907       7.32092619      -0.67400000      -0.24000000
P        4.39507948      10.22995605      10.22879393      -0.66200000      -0.24000000
P        7.50258671       1.33200272       4.39879252      -0.67600000      -0.24000000
P       10.34072338       1.41387127       1.41270916      -0.67700000      -0.24000000
P        7.50258671       4.39995463       1.33084060      -0.67600000      -0.24000000
P       10.34104320       4.36659197       4.36542985      -0.67400000      -0.24000000
P        7.38171863       1.40862018      10.23605339      -0.67600000      -0.24000000
P       10.32194991       1.38880312       7.32331063      -0.68000000      -0.24000000
P        7.38259420       4.34517406       7.32003241      -0.67500000      -0.24000000
P       10.30176305       4.38051421      10.24035874      -0.67600000      -0.24000000
P        7.38259419       7.32119453       4.34401194      -0.67500000      -0.24000000
P       10.32194991       7.32447274       1.38764100      -0.68000000      -0.24000000
P        7.38171863      10.23721551       1.40745806      -0.67600000      -0.24000000
P       10.30176305      10.24152086       4.37935209      -0.67600000      -0.24000000
P        7.32074481       7.30364134      10.27008546      -0.67500000      -0.24000000
P       10.28233507       7.33017081       7.32900869      -0.67500000      -0.24000000
P        7.32074481      10.27124758       7.30247922      -0.67500000      -0.24000000
P       10.29319592      10.25962329      10.25846118      -0.67400000      -0.24000000
In      -0.01852703      -0.07399798      -0.07516010       0.67600000       0.24000000
In       2.94816749      -0.07024195       2.85722496       0.73400000       0.26000000
In       0.02270405       2.89448289       2.89332077       0.67600000       0.24000000
In       2.94816749       2.85838708      -0.07140407       0.73400000       0.26000000
In      -0.02472367      -0.07447668       5.82022787       0.65600000       0.23000000
In       2.92867999      -0.06562324       8.78781345       0.68200000       0.25000000
In      -0.05073821       2.87599985       8.81456149       0.65600000       0.23000000
In       2.78667102       2.85420265       5.97960506       0.68200000       0.25000000
In      -0.02472367       5.82138999      -0.07563880       0.65600000       0.23000000
In       2.78667102       5.98076718       2.85304053       0.68200000       0.25000000
In      -0.05073821       8.81572361       2.87483773       0.65600000       0.23000000
In       2.92867999       8.78897557      -0.06678536       0.68200000       0.25000000
In      -0.04016646       5.86413260       5.86297048       0.68000000       0.24000000
In       2.93438285       5.86695827       8.80272692       0.68600000       0.24000000
In      -0.02376558       8.79257346       8.79141134       0.68000000       0.24000000
In       2.93438285       8.80388904       5.86579615       0.68600000       0.24000000
In       5.95579917      -0.16680521      -0.16796732       0.63300000       0.22000000
In       8.90243469      -0.11770001       2.85284525       0.68600000       0.24000000
In       6.27231435       2.65383566       2.65267354       0.63300000       0.22000000
In       8.90243469       2.85400737      -0.11886213       0.68600000       0.24000000
In       5.86193856      -0.04542943       5.80472316       0.68700000       0.24000000
In       8.82455570      -0.08254374       8.76561771       0.67800000       0.24000000
In       5.88244128       2.88776044       8.78547739       0.68700000       0.24000000
In       8.89638853       2.90213649       5.86416340       0.67800000       0.24000000
In       5.86193856       5.80588527      -0.04659155       0.68700000       0.24000000
In       8.89638853       5.86532552       2.90097437       0.67800000       0.24000000
In       5.88244128       8.78663950       2.88659832       0.68700000       0.24000000
In       8.82455570       8.76677983      -0.08370586       0.67800000       0.24000000
In       5.96393078       5.85932819       5.85816608       0.66100000       0.23000000
In       8.81482886       5.85671250       8.79806877       0.67900000       0.24000000
In       5.86000668       8.77574716       8.77458504       0.66100000       0.23000000
In       8.81482886       8.79923088       5.85555038       0.67900000       0.24000000
P        4.00574805       3.25169296       3.25053084      -0.45200000      -0.16000000
65
Lattice="11.801682 -8e-06 -8e-06 -8e-06 11.801682 -8e-06 -8e-06 -8e-06 11.801682" Properties=species:S:1:pos:R:3:mulliken_charges:R:1:hirshfeld_charges:R:1 fermi_energy=3.718544537463 core_to_fermi_energy=15.690571930710242 config_type=Interstitial energy=-63089.65710891033 pbc="T T T"
P        1.45381296       1.40521858       4.37140605      -0.64200000      -0.23000000
P        4.24215052       1.18961077       1.18844865      -0.45200000      -0.16000000
P        1.45381296       4.37256817       1.40405646      -0.64200000      -0.23000000
P        4.07846075       4.61440455       4.61324243      -0.66200000      -0.24000000
P        1.41352704       1.39484671      10.22412648      -0.64200000      -0.23000000
P        4.40359031       1.42556007       7.31791834      -0.67600000      -0.24000000
P        1.39203738       4.39935208       7.38217857      -0.67400000      -0.24000000
P        4.40126575       4.35734481      10.26459954      -0.67200000      -0.23000000
P        1.39203738       7.38334068       4.39818996      -0.67400000      -0.24000000
P        4.40359031       7.31908046       1.42439795      -0.67600000      -0.24000000
P        1.41352704      10.22528860       1.39368460      -0.64200000      -0.23000000
P        4.40126575      10.26576166       4.35618269      -0.67200000      -0.23000000
P        1.44702852       7.32198828      10.26660139      -0.67400000      -0.24000000
P        4.41877352       7.29856046       7.29739834      -0.68100000      -0.24000000
P        1.44702852      10.26776351       7.32082616      -0.67400000      -0.24000000
P        4.41470655      10.26173627      10.26057415      -0.66200000      -0.24000000
P        7.55079021       1.32046909       4.44352798      -0.67600000      -0.24000000
P       10.33496533       1.41358281       1.41242070      -0.67700000      -0.24000000
P        7.55079021       4.44469010       1.31930697      -0.67600000      -0.24000000
P       10.33469875       4.37204906       4.37088694      -0.67400000      -0.24000000
P        7.37548563       1.41929440      10.25275562      -0.67600000      -0.24000000
P       10.31715310       1.38680275       7.33906730      -0.68000000      -0.24000000
P        7.37672606       4.35634389       7.32783343      -0.67500000      -0.24000000
P       10.31216942       4.39237019      10.23802151      -0.67600000      -0.24000000
P        7.37672605       7.32899555       4.35518178      -0.67500000      -0.24000000
P       10.31715310       7.34022942       1.38564063      -0.68000000      -0.24000000
P        7.37548563      10.25391773       1.41813228      -0.67600000      -0.24000000
P       10.31216942      10.23918363       4.39120807      -0.67600000      -0.24000000
P        7.31063592       7.30552570      10.27619808      -0.67500000      -0.24000000
P       10.28365656       7.33086021       7.32969809      -0.67500000      -0.24000000
P        7.31063592      10.27736020       7.30436358      -0.67500000      -0.24000000
P       10.28749397      10.25837190      10.25720978      -0.67400000      -0.24000000
In      -0.02638487      -0.07546024      -0.07662236       0.67600000       0.24000000
In       2.87725887      -0.12202739       2.88029103       0.73400000       0.26000000
In       0.00793803       2.89514620       2.89398408       0.67600000       0.24000000
In       2.87725887       2.88145315      -0.12318951       0.73400000       0.26000000
In      -0.02324627      -0.05882463       5.82989212       0.65600000       0.23000000
In       2.93375914      -0.07500489       8.79044178       0.68200000       0.25000000
In      -0.05300100       2.88692044       8.79842143       0.65600000       0.23000000
In       2.81928299       2.87816283       5.95518522       0.68200000       0.25000000
In      -0.02324627       5.83105424      -0.05998675       0.65600000       0.23000000
In       2.81928299       5.95634734       2.87700071       0.68200000       0.25000000
In      -0.05300100       8.79958355       2.88575832       0.65600000       0.23000000
In       2.93375914       8.79160390      -0.07616701       0.68200000       0.25000000
In      -0.03720366       5.86472172       5.86355960       0.68000000       0.24000000
In       2.93386737       5.86651461       8.79974014       0.68600000       0.24000000
In      -0.02486832       8.79338397       8.79222185       0.68000000       0.24000000
In       2.93386737       8.80090225       5.86535249       0.68600000       0.24000000
In       5.94341571      -0.09415421      -0.09531632       0.63300000       0.22000000
In       8.91638209      -0.12738676       2.85655192       0.68600000       0.24000000
In       6.42010592       2.80561552       2.80445340       0.63300000       0.22000000
In       8.91638209       2.85771403      -0.12854888       0.68600000       0.24000000
In       5.85052397      -0.03143201       5.80761059       0.68700000       0.24000000
In       8.81215832      -0.08363072       8.77659333       0.67800000       0.24000000
In       5.88338227       2.89157639       8.79456913       0.68700000       0.24000000
In       8.91257857       2.91727965       5.89902733       0.67800000       0.24000000
In       5.85052397       5.80877271      -0.03259413       0.68700000       0.24000000
In       8.91257857       5.90018945       2.91611753       0.67800000       0.24000000
In       5.88338227       8.79573125       2.89041427       0.68700000       0.24000000
In       8.81215832       8.77775545      -0.08479284       0.67800000       0.24000000
In       5.94040644       5.83496113       5.83379901       0.66100000       0.23000000
In       8.81068967       5.86619241       8.80307347       0.67900000       0.24000000
In       5.84717199       8.78322676       8.78206464       0.66100000       0.23000000
In       8.81068967       8.80423559       5.86503030       0.67900000       0.24000000
P        4.06166095       3.02648128       3.02531916      -0.45200000      -0.16000000
65
Lattice="11.801682 -8e-06 -8e-06 -8e-06 11.801682 -8e-06 -8e-06 -8e-06 11.801682" Properties=species:S:1:pos:R:3:mulliken_charges:R:1:hirshfeld_charges:R:1 fermi_energy=3.718544537463 core_to_fermi_energy=15.690571930710242 config_type=Interstitial energy=-63089.65688613567 pbc="T T T"
P        1.45381437       1.41112311       4.37730534      -0.64200000      -0.23000000
P        4.07855423       1.16938754       1.16822542      -0.45200000      -0.16000000
P        1.45381436       4.37846746       1.40996099      -0.64200000      -0.23000000
P        4.24196427       4.59409048       4.59292837      -0.66200000      -0.24000000
P        1.39204723       1.38433451      10.20088346      -0.64200000      -0.23000000
P        4.40126959       1.42633588       7.31844507      -0.67600000      -0.24000000
P        1.41350598       4.38884939       7.35894925      -0.67400000      -0.24000000
P        4.40358415       4.35811867      10.26512563      -0.67200000      -0.23000000
P        1.41350598       7.36011136       4.38768727      -0.67400000      -0.24000000
P        4.40126959       7.31960718       1.42517376      -0.67600000      -0.24000000
P        1.39204723      10.20204557       1.38317239      -0.64200000      -0.23000000
P        4.40358415      10.26628775       4.35695655      -0.67200000      -0.23000000
P        1.44702898       7.31760688      10.26221970      -0.67400000      -0.24000000
P        4.41472093       7.32360492       7.32244281      -0.68100000      -0.24000000
P        1.44702899      10.26338181       7.31644476      -0.67400000      -0.24000000
P        4.41876945      10.28680660      10.28564449      -0.66200000      -0.24000000
P        7.55082347       1.33896481       4.46206110      -0.67600000      -0.24000000
P       10.33470123       1.41163157       1.41046945      -0.67700000      -0.24000000
P        7.55082347       4.46322322       1.33780269      -0.67600000      -0.24000000
P       10.33496153       4.37010186       4.36893974      -0.67400000      -0.24000000
P        7.37671962       1.42732856      10.25520976      -0.67600000      -0.24000000
P       10.31218001       1.39129845       7.34502307      -0.68000000      -0.24000000
P        7.37548224       4.36437830       7.33027938      -0.67500000      -0.24000000
P       10.31714654       4.39687421      10.24396533      -0.67600000      -0.24000000
P        7.37548224       7.33144149       4.36321618      -0.67500000      -0.24000000
P       10.31218001       7.34618518       1.39013633      -0.68000000      -0.24000000
P        7.37671962      10.25637188       1.42616644      -0.67600000      -0.24000000
P       10.31714654      10.24512745       4.39571209      -0.67600000      -0.24000000
P        7.31063018       7.30799698      10.27867256      -0.67500000      -0.24000000
P       10.28749301       7.32698785       7.32582573      -0.67500000      -0.24000000
P        7.31063018      10.27983468       7.30683486      -0.67500000      -0.24000000
P       10.28365152      10.25449563      10.25333351      -0.67400000      -0.24000000
In      -0.03719513      -0.08102412      -0.08218624       0.67600000       0.24000000
In       2.81931397      -0.17262937       2.90435273       0.73400000       0.26000000
In       0.00793254       2.88855545       2.88739333       0.67600000       0.24000000
In       2.81931397       2.90551484      -0.17379149       0.73400000       0.26000000
In      -0.02324619      -0.04735984       5.84135369       0.65600000       0.23000000
In       2.93387218      -0.08282583       8.78331660       0.68200000       0.25000000
In      -0.05300226       2.89676650       8.78464873       0.65600000       0.23000000
In       2.87719751       2.90221825       5.90460304       0.68200000       0.25000000
In      -0.02324619       5.84251581      -0.04852195       0.65600000       0.23000000
In       2.87719751       5.90576515       2.90105614       0.68200000       0.25000000
In      -0.05300226       8.78581085       2.89560438       0.65600000       0.23000000
In       2.93387218       8.78447871      -0.08398795       0.68200000       0.25000000
In      -0.02640137       5.85916601       5.85800389       0.68000000       0.24000000
In       2.93375761       5.85869943       8.79261208       0.68600000       0.24000000
In      -0.02486846       8.79198945       8.79082733       0.68000000       0.24000000
In       2.93375760       8.79377420       5.85753731       0.68600000       0.24000000
In       5.94039522      -0.05125728      -0.05241940       0.63300000       0.22000000
In       8.91259464      -0.11652388       2.86523534       0.68600000       0.24000000
In       6.42021309       2.97794907       2.97678695       0.63300000       0.22000000
In       8.91259465       2.86639746      -0.11768600       0.68600000       0.24000000
In       5.85051765      -0.02508486       5.81394995       0.68700000       0.24000000
In       8.81068883      -0.08251673       8.77997054       0.67800000       0.24000000
In       5.88338190       2.89210543       8.78847559       0.68700000       0.24000000
In       8.91638949       2.92597096       5.90991804       0.67800000       0.24000000
In       5.85051765       5.81511207      -0.02624698       0.68700000       0.24000000
In       8.91638949       5.91108016       2.92480884       0.67800000       0.24000000
In       5.88338190       8.78963771       2.89094331       0.68700000       0.24000000
In       8.81068883       8.78113266      -0.08367885       0.67800000       0.24000000
In       5.94339294       5.87778897       5.87662685       0.66100000       0.23000000
In       8.81214762       5.86731163       8.80644712       0.67900000       0.24000000
In       5.84716589       8.80213201       8.80096989       0.66100000       0.23000000
In       8.81214762       8.80760924       5.86614951       0.67900000       0.24000000