65
Lattice="11.801682 -8e-06 -8e-06 -8e-06 11.801682 -8e-06 -8e-06 -8e-06 11.801682" Properties=species:S:1:pos:R:3:mulliken_charges:R:1:hirshfeld_charges:R:1 fermi_energy=3.718544537463 core_to_fermi_energy=15.690571930710242 config_type=Interstitial energy=-63090.24943036987 pbc="T T T"
P        1.39827996       1.45201258       4.47351895      -0.64200000      -0.23000000
P        3.95541364       2.20980819       2.20980819      -0.45200000      -0.16000000
P        1.39827996       4.47351895       1.45201258      -0.64200000      -0.23000000
P        4.46289771       4.49782925       4.49782925      -0.66200000      -0.24000000
P        1.39828454       1.45300873      10.23319627      -0.64200000      -0.23000000
P        4.41302984       1.45250587       7.35335109      -0.67600000      -0.24000000
P        1.46428042       4.39923273       7.34140199      -0.67400000      -0.24000000
P        4.41154214       4.39409621      10.31259937      -0.67200000      -0.23000000
P        1.46428042       7.34140199       4.39923273      -0.67400000      -0.24000000
P        4.41302984       7.35335109       1.45250587      -0.67600000      -0.24000000
P        1.39828454      10.23319627       1.45300873      -0.64200000      -0.23000000
P        4.41154214      10.31259937       4.39409621      -0.67200000      -0.23000000
P        1.46427910       7.36530058      10.30746825      -0.67400000      -0.24000000
P        4.35989337       7.35334458       7.35334458      -0.68100000      -0.24000000
P        1.46427910      10.30746825       7.36530058      -0.67400000      -0.24000000
P        4.46289694      10.20885623      10.20885623      -0.66200000      -0.24000000
P        7.42277841       1.42555164       4.43812258      -0.67600000      -0.24000000
P       10.35430787       1.45250644       1.45250644      -0.67700000      -0.24000000
P        7.42277841       4.43812258       1.42555164      -0.67600000      -0.24000000
P       10.31550431       4.41056467       4.41056467      -0.67400000      -0.24000000
P        7.42278129       1.47945623      10.26857012      -0.67600000      -0.24000000
P       10.27826587       1.45250281       7.35334702      -0.68000000      -0.24000000
P        7.36407299       4.41205624       7.36556516      -0.67500000      -0.24000000
P       10.32588241       4.41295016      10.29373637      -0.67600000      -0.24000000
P        7.36407299       7.36556516       4.41205624      -0.67500000      -0.24000000
P       10.27826587       7.35334702       1.45250281      -0.68000000      -0.24000000
P        7.42278129      10.26857012       1.47945623      -0.67600000      -0.24000000
P       10.32588241      10.29373637       4.41295016      -0.67600000      -0.24000000
P        7.36407233       7.34112315      10.29463253      -0.67500000      -0.24000000
P       10.31299535       7.35334350       7.35334350      -0.67500000      -0.24000000
P        7.36407233      10.29463253       7.34112315      -0.67500000      -0.24000000
P       10.31550173      10.29612389      10.29612389      -0.67400000      -0.24000000
In       0.00427406      -0.03721321      -0.03721321       0.67600000       0.24000000
In       2.78776286      -0.10825777       3.01329344       0.73400000       0.26000000
In       0.00426356       2.94224576       2.94224576       0.67600000       0.24000000
In       2.78776286       3.01329344      -0.10825777       0.73400000       0.26000000
In      -0.04748751      -0.03213423       5.92781429       0.65600000       0.23000000
In       2.96284806      -0.03791039       8.84698325       0.68200000       0.25000000
In      -0.04748957       2.93715270       8.77890101       0.65600000       0.23000000
In       2.96284307       2.94292920       5.85972999       0.68200000       0.25000000
In      -0.04748751       5.92781429      -0.03213423       0.65600000       0.23000000
In       2.96284307       5.85972999       2.94292920       0.68200000       0.25000000
In      -0.04748957       8.77890101       2.93715270       0.65600000       0.23000000
In       2.96284806       8.84698325      -0.03791039       0.68200000       0.25000000
In      -0.00618642       5.88352558       5.88352558       0.68000000       0.24000000
In       2.91917639       5.86422316       8.84247797       0.68600000       0.24000000
In      -0.00618895       8.82317772       8.82317772       0.68000000       0.24000000
In       2.91917639       8.84247797       5.86422316       0.68600000       0.24000000
In       6.09055448      -0.18197097      -0.18197097       0.63300000       0.22000000
In       8.89000065      -0.01825819       2.92327585       0.68600000       0.24000000
In       6.09053145       3.08698087       3.08698087       0.63300000       0.22000000
In       8.89000065       2.92327585      -0.01825819       0.68600000       0.24000000
In       5.88109241      -0.02211510       5.88334278       0.68700000       0.24000000
In       8.84888294      -0.04359853       8.81423420       0.67800000       0.24000000
In       5.88108718       2.92712681       8.82336103       0.68700000       0.24000000
In       8.84887832       2.94860464       5.89246287       0.67800000       0.24000000
In       5.88109241       5.88334278      -0.02211510       0.68700000       0.24000000
In       8.84887832       5.89246287       2.94860464       0.67800000       0.24000000
In       5.88108718       8.82336103       2.92712681       0.68700000       0.24000000
In       8.84888294       8.81423420      -0.04359853       0.67800000       0.24000000
In       5.90256361       5.94750164       5.94750164       0.66100000       0.23000000
In       8.84477992       5.87384089       8.83284700       0.67900000       0.24000000
In       5.90256386       8.75918554       8.75918554       0.66100000       0.23000000
In       8.84477992       8.83284700       5.87384089       0.67900000       0.24000000
P        3.95542224       0.69517924       0.69517924      -0.45200000      -0.16000000
65
Lattice="11.801682 -8e-06 -8e-06 -8e-06 11.801682 -8e-06 -8e-06 -8e-06 11.801682" Properties=species:S:1:pos:R:3:mulliken_charges:R:1:hirshfeld_charges:R:1 fermi_energy=3.718544537463 core_to_fermi_energy=15.690571930710242 config_type=Interstitial energy=-63090.223853033254 pbc="T T T"
P        1.35238493       1.45735862       4.52817664      -0.64200000      -0.23000000
P        3.97899023       2.07500821       2.35967035      -0.45200000      -0.16000000
P        1.45636179       4.40664539       1.42814921      -0.64200000      -0.23000000
P        4.46641052       4.49026194       4.49151416      -0.66200000      -0.24000000
P        1.37002716       1.44189312      10.17295092      -0.64200000      -0.23000000
P        4.41599430       1.45615831       7.34081940      -0.67600000      -0.24000000
P        1.46404084       4.41579506       7.34034461      -0.67400000      -0.24000000
P        4.42276039       4.40333715      10.29378158      -0.67200000      -0.23000000
P        1.46844845       7.32758603       4.37475915      -0.67400000      -0.24000000
P        4.41241289       7.35841431       1.44558839      -0.67600000      -0.24000000
P        1.42965728      10.27892948       1.47271931      -0.64200000      -0.23000000
P        4.42140562      10.27397324       4.43365701      -0.67200000      -0.23000000
P        1.46711354       7.37563184      10.32899978      -0.67400000      -0.24000000
P        4.36882285       7.34341690       7.36632408      -0.68100000      -0.24000000
P        1.44370729      10.28171628       7.34916827      -0.67400000      -0.24000000
P        4.44435639      10.23128303      10.19511233      -0.66200000      -0.24000000
P        7.45121147       1.42347516       4.45033581      -0.67600000      -0.24000000
P       10.35394942       1.45524992       1.44456972      -0.67700000      -0.24000000
P        7.41769744       4.43915994       1.42656322      -0.67600000      -0.24000000
P       10.32652279       4.40966404       4.39714492      -0.67400000      -0.24000000
P        7.42102476       1.49694475      10.26062608      -0.67600000      -0.24000000
P       10.25778179       1.45264654       7.36669205      -0.68000000      -0.24000000
P        7.37321661       4.42598267       7.35326823      -0.67500000      -0.24000000
P       10.32690010       4.42603096      10.29654555      -0.67600000      -0.24000000
P        7.36507672       7.36994292       4.40292536      -0.67500000      -0.24000000
P       10.29452394       7.34928812       1.44638128      -0.68000000      -0.24000000
P        7.39010774      10.29843635       1.46036795      -0.67600000      -0.24000000
P       10.31464666      10.28337769       4.39557209      -0.67600000      -0.24000000
P        7.36442915       7.35317237      10.29704122      -0.67500000      -0.24000000
P       10.31413673       7.35660758       7.34882983      -0.67500000      -0.24000000
P        7.36537397      10.29991595       7.34549650      -0.67500000      -0.24000000
P       10.31713050      10.29799834      10.31238844      -0.67400000      -0.24000000
In       0.01679168      -0.02281879      -0.04055972       0.67600000       0.24000000
In       2.77020073      -0.12176572       3.13275396       0.73400000       0.26000000
In       0.01538998       2.92978692       2.93366734       0.67600000       0.24000000
In       2.81112011       2.96015977      -0.18297303       0.73400000       0.26000000
In      -0.09460094      -0.05139931       5.94614495       0.65600000       0.23000000
In       2.94313098      -0.04527951       8.80143730       0.68200000       0.25000000
In      -0.06675075       2.95863175       8.75883292       0.65600000       0.23000000
In       2.95857614       2.94808457       5.86095317       0.68200000       0.25000000
In      -0.01394524       5.89919689      -0.01174851       0.65600000       0.23000000
In       2.97375751       5.84200311       2.92383917       0.68200000       0.25000000
In      -0.03078316       8.79053348       2.91893983       0.65600000       0.23000000
In       2.96748279       8.87393076      -0.02815394       0.68200000       0.25000000
In      -0.00622166       5.88874274       5.87248807       0.68000000       0.24000000
In       2.91074609       5.87672981       8.85184243       0.68600000       0.24000000
In      -0.01488070       8.81719782       8.83823333       0.68000000       0.24000000
In       2.91161664       8.80180488       5.87645702       0.68600000       0.24000000
In       6.05528475      -0.14394498      -0.20653722       0.63300000       0.22000000
In       8.88509772      -0.01940553       2.90922263       0.68600000       0.24000000
In       6.11183961       3.07612387       3.10235873       0.63300000       0.22000000
In       8.88994702       2.93179339      -0.02230139       0.68600000       0.24000000
In       5.88994215      -0.01700364       5.87534932       0.68700000       0.24000000
In       8.84320242      -0.04730758       8.83176491       0.67800000       0.24000000
In       5.88990597       2.93870513       8.80284713       0.68700000       0.24000000
In       8.86275326       2.95862464       5.89291953       0.67800000       0.24000000
In       5.88266487       5.89110136      -0.02637169       0.68700000       0.24000000
In       8.85600324       5.89740794       2.94559622       0.67800000       0.24000000
In       5.88216567       8.82642948       2.91667159       0.68700000       0.24000000
In       8.84332734       8.82199576      -0.02865858       0.67800000       0.24000000
In       5.90111893       5.95094390       5.93473250       0.66100000       0.23000000
In       8.84436737       5.88595179       8.83313969       0.67900000       0.24000000
In       5.89892888       8.77264954       8.76528994       0.66100000       0.23000000
In       8.83885060       8.83464973       5.87437025       0.67900000       0.24000000
P        3.93361430       0.78745672       0.66780763      -0.45200000      -0.16000000
65
Lattice="11.801682 -8e-06 -8e-06 -8e-06 11.801682 -8e-06 -8e-06 -8e-06 11.801682" Properties=species:S:1:pos:R:3:mulliken_charges:R:1:hirshfeld_charges:R:1 fermi_energy=3.718544537463 core_to_fermi_energy=15.690571930710242 config_type=Interstitial energy=-63090.12571530819 pbc="T T T"
P        1.33114863       1.45379466       4.53569338      -0.64200000      -0.23000000
P        4.14035592       1.83163336       2.50757119      -0.45200000      -0.16000000
P        1.48139470       4.38316732       1.42914074      -0.64200000      -0.23000000
P        4.45849276       4.48605663       4.47002187      -0.66200000      -0.24000000
P        1.37031935       1.44761204      10.15843429      -0.64200000      -0.23000000
P        4.41377271       1.46030798       7.32723982      -0.67600000      -0.24000000
P        1.46709860       4.41525692       7.33153920      -0.67400000      -0.24000000
P        4.43471982       4.42332623      10.27326793      -0.67200000      -0.23000000
P        1.46050705       7.32950768       4.37064895      -0.67400000      -0.24000000
P        4.41073350       7.37032716       1.44139697      -0.67600000      -0.24000000
P        1.43756347      10.29193929       1.47090538      -0.64200000      -0.23000000
P        4.42426021      10.21870403       4.48425776      -0.67200000      -0.23000000
P        1.46335123       7.37407209      10.33133366      -0.67400000      -0.24000000
P        4.38052791       7.32615406       7.37772809      -0.68100000      -0.24000000
P        1.42723813      10.27476308       7.34317941      -0.67400000      -0.24000000
P        4.42129538      10.23368610      10.17303121      -0.66200000      -0.24000000
P        7.47028795       1.44697947       4.46619854      -0.67600000      -0.24000000
P       10.34330557       1.45766739       1.44068184      -0.67700000      -0.24000000
P        7.42810884       4.46281503       1.40829679      -0.67600000      -0.24000000
P       10.33018657       4.41059691       4.39455264      -0.67400000      -0.24000000
P        7.40926494       1.50087230      10.25541667      -0.67600000      -0.24000000
P       10.25878502       1.44861180       7.38179034      -0.68000000      -0.24000000
P        7.37748607       4.43422246       7.34791623      -0.67500000      -0.24000000
P       10.32640378       4.42748332      10.29391018      -0.67600000      -0.24000000
P        7.36547991       7.37237650       4.39827686      -0.67500000      -0.24000000
P       10.30111482       7.35130317       1.44010066      -0.68000000      -0.24000000
P        7.35482506      10.32707207       1.44922895      -0.67600000      -0.24000000
P       10.29842243      10.28564629       4.38165065      -0.67600000      -0.24000000
P        7.36845744       7.36931699      10.29685194      -0.67500000      -0.24000000
P       10.31306837       7.36020727       7.34722077      -0.67500000      -0.24000000
P        7.36179246      10.31290876       7.33742899      -0.67500000      -0.24000000
P       10.31572124      10.30478286      10.32323937      -0.67400000      -0.24000000
In       0.01932605      -0.00530113      -0.04240050       0.67600000       0.24000000
In       2.74316232      -0.19223706       3.21879975       0.73400000       0.26000000
In       0.00988462       2.92387968       2.92762832       0.67600000       0.24000000
In       2.82749967       2.97168752      -0.21591306       0.73400000       0.26000000
In      -0.11963210      -0.05813354       5.94537069       0.65600000       0.23000000
In       2.92686000      -0.03933553       8.77610190       0.68200000       0.25000000
In      -0.06504183       2.96449866       8.75481573       0.65600000       0.23000000
In       2.95551570       2.94021742       5.84293280       0.68200000       0.25000000
In      -0.00294842       5.88422819      -0.00663573       0.65600000       0.23000000
In       2.97047906       5.85488626       2.91446481       0.68200000       0.25000000
In      -0.03214663       8.80054638       2.91050369       0.65600000       0.23000000
In       2.96320944       8.87950276      -0.03158968       0.68200000       0.25000000
In      -0.00766832       5.88881280       5.87109436       0.68000000       0.24000000
In       2.90240382       5.87930899       8.84789544       0.68600000       0.24000000
In      -0.02424507       8.81924655       8.84712111       0.68000000       0.24000000
In       2.90074311       8.76446349       5.90897000       0.68600000       0.24000000
In       6.01598585      -0.13606855      -0.24115429       0.63300000       0.22000000
In       8.86197976      -0.00811841       2.90661345       0.68600000       0.24000000
In       6.15616380       3.11982844       3.11202431       0.63300000       0.22000000
In       8.88514145       2.93096270      -0.03252814       0.68600000       0.24000000
In       5.88700732      -0.00245606       5.85157471       0.68700000       0.24000000
In       8.83659192      -0.04948203       8.83816381       0.67800000       0.24000000
In       5.89261929       2.94356987       8.78870931       0.68700000       0.24000000
In       8.88278253       2.96338143       5.91037335       0.67800000       0.24000000
In       5.87924777       5.91050659      -0.03542625       0.68700000       0.24000000
In       8.86566264       5.90846220       2.94678054       0.67800000       0.24000000
In       5.88190549       8.83261553       2.91630308       0.68700000       0.24000000
In       8.83493996       8.83795265      -0.01371764       0.67800000       0.24000000
In       5.89789047       5.94555664       5.91968341       0.66100000       0.23000000
In       8.84299242       5.89367893       8.83449039       0.67900000       0.24000000
In       5.90385080       8.78192610       8.75833391       0.66100000       0.23000000
In       8.83448893       8.83853506       5.87551554       0.67900000       0.24000000
P        3.92512810       0.86672146       0.65378968      -0.45200000      -0.16000000
65
Lattice="11.801682 -8e-06 -8e-06 -8e-06 11.801682 -8e-06 -8e-06 -8e-06 11.801682" Properties=species:S:1:pos:R:3:mulliken_charges:R:1:hirshfeld_charges:R:1 fermi_energy=3.718544537463 core_to_fermi_energy=15.690571930710242 config_type=Interstitial energy=-63090.036557088744 pbc="T T T"
P        1.33373163       1.46030364       4.52721471      -0.64200000      -0.23000000
P        4.35797119       1.58302026       2.55523221      -0.45200000      -0.16000000
P        1.48511152       4.38447195       1.43522998      -0.64200000      -0.23000000
P        4.44100733       4.49407364       4.46637100      -0.66200000      -0.24000000
P        1.37336728       1.45290637      10.15806601      -0.64200000      -0.23000000
P        4.41244886       1.46173295       7.32395342      -0.67600000      -0.24000000
P        1.46632735       4.41458651       7.33293366      -0.67400000      -0.24000000
P        4.44380550       4.43838759      10.26365693      -0.67200000      -0.23000000
P        1.45084730       7.33348837       4.37229851      -0.67400000      -0.24000000
P        4.40955386       7.38039421       1.44119730      -0.67600000      -0.24000000
P        1.44002011      10.29224151       1.46816040      -0.64200000      -0.23000000
P        4.41706559      10.19353704       4.51470494      -0.67200000      -0.23000000
P        1.45987790       7.36949641      10.32919163      -0.67400000      -0.24000000
P        4.38845475       7.31654660       7.38296568      -0.68100000      -0.24000000
P        1.42245124      10.27322268       7.34135052      -0.67400000      -0.24000000
P        4.40874457      10.22782813      10.16100249      -0.66200000      -0.24000000
P        7.45868350       1.47410894       4.46954614      -0.67600000      -0.24000000
P       10.33460097       1.45859916       1.44097607      -0.67700000      -0.24000000
P        7.43339476       4.47902966       1.39815049      -0.67600000      -0.24000000
P       10.32946132       4.41211886       4.39526568      -0.67400000      -0.24000000
P        7.39782262       1.49797506      10.25870723      -0.67600000      -0.24000000
P       10.26338521       1.44251942       7.38478329      -0.68000000      -0.24000000
P        7.38153066       4.43364088       7.34631958      -0.67500000      -0.24000000
P       10.32647420       4.42477566      10.29392801      -0.67600000      -0.24000000
P        7.36336504       7.37689860       4.39616484      -0.67500000      -0.24000000
P       10.30291987       7.35270209       1.43903659      -0.68000000      -0.24000000
P        7.33962355      10.33603305       1.44054176      -0.67600000      -0.24000000
P       10.28831667      10.29509389       4.37493867      -0.67600000      -0.24000000
P        7.37240787       7.37475735      10.29533609      -0.67500000      -0.24000000
P       10.31240539       7.36156684       7.34746477      -0.67500000      -0.24000000
P        7.36345785      10.31678229       7.33443536      -0.67500000      -0.24000000
P       10.31735437      10.30894316      10.32759787      -0.67400000      -0.24000000
In       0.02085161       0.00316102      -0.03943057       0.67600000       0.24000000
In       2.72809377      -0.22148133       3.24746061       0.73400000       0.26000000
In       0.00242371       2.92416705       2.92435238       0.67600000       0.24000000
In       2.82160545       3.00676031      -0.24031277       0.73400000       0.26000000
In      -0.11839097      -0.05777390       5.93702787       0.65600000       0.23000000
In       2.91927278      -0.03465388       8.76809431       0.68200000       0.25000000
In      -0.06550023       2.96173217       8.75440134       0.65600000       0.23000000
In       2.95186147       2.93851546       5.84475953       0.68200000       0.25000000
In      -0.00407638       5.88190829      -0.00712538       0.65600000       0.23000000
In       2.96367705       5.87095010       2.91196685       0.68200000       0.25000000
In      -0.03801322       8.80860592       2.90912152       0.65600000       0.23000000
In       2.95754523       8.87485097      -0.03720542       0.68200000       0.25000000
In      -0.00948461       5.88714121       5.87304302       0.68000000       0.24000000
In       2.90139231       5.88101459       8.84471271       0.68600000       0.24000000
In      -0.02792016       8.82184006       8.84950281       0.68000000       0.24000000
In       2.89473462       8.74196347       5.92815482       0.68600000       0.24000000
In       5.98335710      -0.13431181      -0.25014529       0.63300000       0.22000000
In       8.83563365       0.00569519       2.91035840       0.68600000       0.24000000
In       6.15267411       3.17331398       3.11380974       0.63300000       0.22000000
In       8.88110539       2.92908977      -0.03711507       0.68600000       0.24000000
In       5.88751946       0.00082946       5.84611992       0.68700000       0.24000000
In       8.83324170      -0.04933687       8.84214687       0.67800000       0.24000000
In       5.89417698       2.94433052       8.78412985       0.68700000       0.24000000
In       8.89259093       2.95861874       5.91663979       0.67800000       0.24000000
In       5.87828695       5.92453855      -0.03705422       0.68700000       0.24000000
In       8.86758390       5.91555092       2.94905243       0.67800000       0.24000000
In       5.87703202       8.84669692       2.92137599       0.68700000       0.24000000
In       8.83252277       8.84458691      -0.00858179       0.67800000       0.24000000
In       5.90281797       5.94322016       5.91612146       0.66100000       0.23000000
In       8.84342435       5.89392911       8.83499745       0.67900000       0.24000000
In       5.90923688       8.78426078       8.75463116       0.66100000       0.23000000
In       8.83585964       8.84060244       5.87445655       0.67900000       0.24000000
P        3.89614367       0.91491628       0.63065143      -0.45200000      -0.16000000
65
Lattice="11.801682 -8e-06 -8e-06 -8e-06 11.801682 -8e-06 -8e-06 -8e-06 11.801682" Properties=species:S:1:pos:R:3:mulliken_charges:R:1:hirshfeld_charges:R:1 fermi_energy=3.718544537463 core_to_fermi_energy=15.690571930710242 config_type=Interstitial energy=-63090.049146672296 pbc="T T T"
P        1.34621407       1.46889146       4.50930968      -0.64200000      -0.23000000
P        4.58662033       1.35806637       2.55075625      -0.45200000      -0.16000000
P        1.48411933       4.39113293       1.44239284      -0.64200000      -0.23000000
P        4.41890136       4.51230622       4.46974783      -0.66200000      -0.24000000
P        1.37772750       1.46030461      10.16292591      -0.64200000      -0.23000000
P        4.41190172       1.46228836       7.32429067      -0.67600000      -0.24000000
P        1.46500744       4.41259207       7.33502157      -0.67400000      -0.24000000
P        4.44907386       4.44956061      10.25782718      -0.67200000      -0.23000000
P        1.44163722       7.33974036       4.37609921      -0.67400000      -0.24000000
P        4.40871967       7.38584217       1.44075460      -0.67600000      -0.24000000
P        1.44076782      10.29100133       1.46854309      -0.64200000      -0.23000000
P        4.40878487      10.18369593       4.52919211      -0.67200000      -0.23000000
P        1.45712185       7.36665053      10.32710538      -0.67400000      -0.24000000
P        4.39416862       7.31195652       7.38468602      -0.68100000      -0.24000000
P        1.42231245      10.27421767       7.34156520      -0.67400000      -0.24000000
P        4.40239697      10.22403156      10.15768458      -0.66200000      -0.24000000
P        7.44130632       1.49474909       4.46578063      -0.67600000      -0.24000000
P       10.32900003       1.45944849       1.44123221      -0.67700000      -0.24000000
P        7.42666449       4.48278134       1.39950479      -0.67600000      -0.24000000
P       10.32619723       4.41342619       4.39662994      -0.67400000      -0.24000000
P        7.38610809       1.49171868      10.26520463      -0.67600000      -0.24000000
P       10.26878364       1.43647636       7.38191394      -0.68000000      -0.24000000
P        7.38454251       4.43016445       7.34652303      -0.67500000      -0.24000000
P       10.32445048       4.42119752      10.29587311      -0.67600000      -0.24000000
P        7.36229328       7.37942167       4.39512997      -0.67500000      -0.24000000
P       10.30308495       7.35203629       1.43906245      -0.68000000      -0.24000000
P        7.33422297      10.33589519       1.43399202      -0.67600000      -0.24000000
P       10.28312762      10.30424637       4.37193183      -0.67600000      -0.24000000
P        7.37576839       7.37598729      10.29367622      -0.67500000      -0.24000000
P       10.31172227       7.36216114       7.34740471      -0.67500000      -0.24000000
P        7.36497472      10.31797851       7.33220167      -0.67500000      -0.24000000
P       10.32069225      10.31168800      10.32946244      -0.67400000      -0.24000000
In       0.02426225       0.00826933      -0.03628521       0.67600000       0.24000000
In       2.73196136      -0.21995520       3.24381797       0.73400000       0.26000000
In      -0.00770657       2.92791362       2.92031587       0.67600000       0.24000000
In       2.81552818       3.03921768      -0.24987225       0.73400000       0.26000000
In      -0.10462516      -0.05453343       5.92455495       0.65600000       0.23000000
In       2.91487597      -0.02986711       8.76908701       0.68200000       0.25000000
In      -0.06742627       2.95779122       8.75524367       0.65600000       0.23000000
In       2.95107561       2.93692080       5.84655188       0.68200000       0.25000000
In      -0.00734236       5.88225067      -0.00927590       0.65600000       0.23000000
In       2.95323194       5.89060432       2.90954597       0.68200000       0.25000000
In      -0.04438168       8.81447917       2.90927085       0.65600000       0.23000000
In       2.95224031       8.87230864      -0.04001907       0.68200000       0.25000000
In      -0.01108241       5.88501348       5.87484815       0.68000000       0.24000000
In       2.90097138       5.88343807       8.84150765       0.68600000       0.24000000
In      -0.02984076       8.82384984       8.84919632       0.68000000       0.24000000
In       2.89253413       8.73163220       5.93885734       0.68600000       0.24000000
In       5.94990278      -0.12714955      -0.23564924       0.63300000       0.22000000
In       8.81798069       0.01487290       2.91242250       0.68600000       0.24000000
In       6.11269411       3.20694198       3.11374743       0.63300000       0.22000000
In       8.87225831       2.92791090      -0.03676213       0.68600000       0.24000000
In       5.88878409       0.00213117       5.84366894       0.68700000       0.24000000
In       8.83105187      -0.04895854       8.84507729       0.67800000       0.24000000
In       5.89470063       2.94350347       8.78473504       0.68700000       0.24000000
In       8.89373545       2.95060223       5.91619214       0.67800000       0.24000000
In       5.87962848       5.93174269      -0.03664106       0.68700000       0.24000000
In       8.86479060       5.91716686       2.94869126       0.67800000       0.24000000
In       5.87428439       8.85515048       2.92500469       0.68700000       0.24000000
In       8.83250903       8.84748446      -0.00693895       0.67800000       0.24000000
In       5.91058096       5.94091646       5.91617796       0.66100000       0.23000000
In       8.84454880       5.89276594       8.83494082       0.67900000       0.24000000
In       5.91292055       8.78598697       8.75429697       0.66100000       0.23000000
In       8.83793830       8.84231790       5.87261808       0.67900000       0.24000000