63
Lattice="11.8016818 -7.6e-06 -7.6e-06 -7.6e-06 11.8016818 -7.8e-06 -7.6e-06 -7.8e-06 11.8016816" Properties=species:S:1:pos:R:3:mulliken_charges:R:1 virial="-0.001343979365248383 3.847269175329341e-05 3.847269175329341e-05 3.847269175329341e-05 -0.001345261788306826 3.847269175329341e-05 3.847269175329341e-05 3.847269175329341e-05 -0.0013426969421899398" fermi_energy=3.4539138232004998 core_to_fermi_energy=15.43004959127955 config_type=Accurate_Bulk energy=-62662.55281800284 pbc="T T T"
P        1.51088116       1.51088110       4.42615851      -0.67500000
P        4.42615864       1.51088126       1.51088124      -0.67500000
P        1.51088119       4.42615860       1.51088110      -0.67500000
In      -0.00125719      -0.00125720      -0.00125720       0.67500000
In       2.94788078       0.00270379       2.94788068       0.67500000
In       0.00270385       2.94788071       2.94788066       0.67500000
In       2.94788078       2.94788074       0.00270380       0.67500000
P        1.47606659       1.47606643      10.32269707      -0.67500000
P        4.42509686       1.51087336       7.34037585      -0.67500000
P        1.51087353       4.42509671       7.34037575      -0.67500000
P        4.42562048       4.42562033      10.32646440      -0.67500000
In       0.01630364       0.01630352       5.89558384       0.67500000
In       2.95567176       0.01629843       8.83495487       0.67500000
In       0.01629862       2.95567161       8.83495480       0.67500000
In       3.06643016       3.06642994       5.78483117       0.67500000
P        1.51087350       7.34037591       4.42509665      -0.67500000
P        4.42509686       7.34037599       1.51087334      -0.67500000
P        1.47606659      10.32269724       1.47606640      -0.67500000
P        4.42562048      10.32646457       4.42562025      -0.67500000
In       0.01630366       5.89558394       0.01630352       0.67500000
In       3.06643016       5.78483133       3.06642993       0.67500000
In       0.01629861       8.83495496       2.95567155       0.67500000
In       2.95567176       8.83495502       0.01629843       0.67500000
P        1.47606170       7.37517922      10.33023823      -0.67500000
P        4.42615065       7.34036550       7.34036537      -0.67500000
P        1.47606170      10.33023841       7.37517911      -0.67500000
P        4.42561754      10.32646057      10.32646039      -0.67500000
In       0.00269841       5.90337649       5.90337639       0.67500000
In       2.94787283       5.90337511       8.84855020       0.67500000
In      -0.00126963       8.85251415       8.85251400       0.67500000
In       2.94787283       8.84855036       5.90337501       0.67500000
P        7.34037594       1.51087347       4.42509675      -0.67500000
P       10.32269725       1.47606659       1.47606655      -0.67500000
P        7.34037592       4.42509682       1.51087347      -0.67500000
P       10.32646462       4.42562043       4.42562035      -0.67500000
In       5.89558394       0.01630368       0.01630367       0.67500000
In       8.83495500       0.01629857       2.95567169       0.67500000
In       5.78483119       3.06643029       3.06643029       0.67500000
In       8.83495499       2.95567175       0.01629857       0.67500000
P        7.37517939       1.47606154      10.33023835      -0.67500000
P       10.33023854       1.47606158       7.37517927      -0.67500000
P        7.34036567       4.42615051       7.34036547      -0.67500000
P       10.32646071       4.42561736      10.32646049      -0.67500000
In       5.90337664       0.00269828       5.90337649       0.67500000
In       8.85251432      -0.00126980       8.85251417       0.67500000
In       5.90337528       2.94787266       8.84855027       0.67500000
In       8.84855050       2.94787268       5.90337512       0.67500000
P        7.34036570       7.34036563       4.42615041      -0.67500000
P       10.33023854       7.37517939       1.47606155      -0.67500000
P        7.37517939      10.33023853       1.47606151      -0.67500000
P       10.32646071      10.32646067       4.42561729      -0.67500000
In       5.90337663       5.90337659       0.00269829       0.67500000
In       8.84855050       5.90337522       2.94787262       0.67500000
In       5.90337528       8.84855044       2.94787260       0.67500000
In       8.85251432       8.85251431      -0.00126980       0.67500000
P        7.37517478       7.37517463      10.32268784      -0.67500000
P       10.32268814       7.37517467       7.37517455      -0.67500000
P        7.37517479      10.32268801       7.37517451      -0.67500000
P       10.32645786      10.32645770      10.32645752      -0.67500000
In       5.78480400       5.78480377       5.78480362       0.67500000
In       8.83494386       5.89557287       8.83494359       0.67500000
In       5.89557301       8.83494367       8.83494352       0.67500000
In       8.83494387       8.83494375       5.89557277       0.67500000
63
Lattice="11.8016818 -7.6e-06 -7.6e-06 -7.6e-06 11.8016818 -7.8e-06 -7.6e-06 -7.8e-06 11.8016816" Properties=species:S:1:pos:R:3:mulliken_charges:R:1 virial="-0.001343979365248383 3.847269175329341e-05 3.847269175329341e-05 3.847269175329341e-05 -0.001345261788306826 3.847269175329341e-05 3.847269175329341e-05 3.847269175329341e-05 -0.0013426969421899398" fermi_energy=3.4539138232004998 core_to_fermi_energy=15.43004959127955 config_type=Accurate_Bulk energy=-62662.22022043323 pbc="T T T"
P        1.43225120       1.68792380       4.54368141      -0.67500000
P        4.54366943       1.68791648       1.43226892      -0.67500000
P        1.51159675       4.44327410       1.51159758      -0.67500000
In       0.05363720      -0.01053485       0.05363680       0.67500000
In       3.05818568       0.43011541       3.05816015       0.67500000
In      -0.06226620       3.03178833       2.94072664       0.67500000
In       2.94072805       3.03178832      -0.06226692       0.67500000
P        1.48962320       1.47532699      10.32885939      -0.67500000
P        4.44732649       1.48963325       7.40893708      -0.67500000
P        1.45430315       4.56190221       7.47383530      -0.67500000
P        4.43149277       4.51407202      10.29045143      -0.67500000
In       0.01316742      -0.00918631       5.89619380       0.67500000
In       2.97013198      -0.01668565       8.87414288       0.67500000
In       0.01302866       2.96278181       8.87085484       0.67500000
In       2.95118527       3.07820856       6.07937521       0.67500000
P        1.56265946       7.33928290       4.40171830      -0.67500000
P        4.40171833       7.33928338       1.56265995      -0.67500000
P        1.61781368      10.52580662       1.61781536      -0.67500000
P        4.38604517      10.47891687       4.38604615      -0.67500000
In       0.01800513       5.91005177       0.01800488       0.67500000
In       3.13787378       5.69226869       3.13787320       0.67500000
In       0.13685481       8.89712134       2.92496536       0.67500000
In       2.92496688       8.89712114       0.13685411       0.67500000
P        1.47217864       7.45629028      10.39310616      -0.67500000
P        4.44921435       7.42335548       7.28315487      -0.67500000
P        1.48372507      10.33169544       7.38299598      -0.67500000
P        4.42149785      10.28664426      10.36221668      -0.67500000
In       0.01242426       5.96401494       5.89012878       0.67500000
In       2.98046280       6.06982191       8.86495397       0.67500000
In      -0.01461229       8.87689936       8.87124107       0.67500000
In       2.95431175       8.92211526       5.84349233       0.67500000
P        7.40893840       1.48963310       4.44732744      -0.67500000
P       10.32886050       1.47532678       1.48962470      -0.67500000
P        7.47383837       4.56190483       1.45430474      -0.67500000
P       10.29045402       4.51406983       4.43149427      -0.67500000
In       5.89619362      -0.00918744       0.01316675       0.67500000
In       8.87414223      -0.01668548       2.97013126       0.67500000
In       6.07937331       3.07820796       2.95118325       0.67500000
In       8.87085340       2.96278218       0.01302778       0.67500000
P        7.36967807       1.50050743      10.36002495      -0.67500000
P       10.36002794       1.50050826       7.36967465      -0.67500000
P        7.31870028       4.44047378       7.31869932      -0.67500000
P       10.32733755       4.43957107      10.32733722      -0.67500000
In       5.91284112       0.00728186       5.91284113       0.67500000
In       8.87005391       0.07062598       8.87005686       0.67500000
In       5.91712775       2.98125234       8.87368193       0.67500000
In       8.87368054       2.98125234       5.91712764       0.67500000
P        7.28315565       7.42335557       4.44921465      -0.67500000
P       10.39310657       7.45629020       1.47217913      -0.67500000
P        7.38299670      10.33169510       1.48372527      -0.67500000
P       10.36221725      10.28664485       4.42149736      -0.67500000
In       5.89012868       5.96401444       0.01242386       0.67500000
In       8.86495200       6.06982210       2.98045925       0.67500000
In       5.84349259       8.92211529       2.95431001       0.67500000
In       8.87124065       8.87689970      -0.01461227       0.67500000
P        7.39058416       7.39332817      10.31842809      -0.67500000
P       10.31842854       7.39332826       7.39058340      -0.67500000
P        7.40170797      10.37130201       7.40170688      -0.67500000
P       10.34304545      10.38014173      10.34304458      -0.67500000
In       5.72338829       5.76975403       5.72338808       0.67500000
In       8.82339340       5.88957786       8.82339365       0.67500000
In       5.92097786       8.85580114       8.83137939       0.67500000
In       8.83137893       8.85580104       5.92097838       0.67500000
63
Lattice="11.8016818 -7.6e-06 -7.6e-06 -7.6e-06 11.8016818 -7.8e-06 -7.6e-06 -7.8e-06 11.8016816" Properties=species:S:1:pos:R:3:mulliken_charges:R:1 virial="-0.001343979365248383 3.847269175329341e-05 3.847269175329341e-05 3.847269175329341e-05 -0.001345261788306826 3.847269175329341e-05 3.847269175329341e-05 3.847269175329341e-05 -0.0013426969421899398" fermi_energy=3.4539138232004998 core_to_fermi_energy=15.43004959127955 config_type=Accurate_Bulk energy=-62660.80867873342 pbc="T T T"
P        1.32246788       1.75380810       4.62733533      -0.67500000
P        4.62724929       1.75378389       1.32263080      -0.67500000
P        1.48728076       4.40638731       1.48728391      -0.67500000
In       0.07962028      -0.07497115       0.07961746       0.67500000
In       3.29684403       1.06581099       3.29661394       0.67500000
In      -0.11934142       3.04091401       2.92622625       0.67500000
In       2.92623340       3.04091022      -0.11934342       0.67500000
P        1.47432837       1.45014175      10.32686325      -0.67500000
P        4.46065978       1.45067273       7.42965359      -0.67500000
P        1.44121175       4.57087622       7.49747384      -0.67500000
P        4.43094944       4.52806633      10.26428344      -0.67500000
In      -0.00527153      -0.08387815       5.90447674       0.67500000
In       2.96467731      -0.04176249       8.88796869       0.67500000
In       0.00394882       2.94373487       8.87028762       0.67500000
In       2.93703731       3.05465335       6.16625541       0.67500000
P        1.58184350       7.31471596       4.38814808      -0.67500000
P        4.38814765       7.31471790       1.58184626      -0.67500000
P        1.66962157      10.55604835       1.66963056      -0.67500000
P        4.30015654      10.60867253       4.30016347      -0.67500000
In       0.00234727       5.89631092       0.00234684       0.67500000
In       3.12310583       5.62489337       3.12310384       0.67500000
In       0.18064245       8.88416695       2.88576425       0.67500000
In       2.88576948       8.88416652       0.18063967       0.67500000
P        1.46225534       7.44550554      10.39438448      -0.67500000
P        4.44449485       7.44077335       7.25782651      -0.67500000
P        1.49758125      10.30064665       7.38017172      -0.67500000
P        4.40056409      10.23864779      10.36880425      -0.67500000
In       0.01676923       5.96044748       5.88341390       0.67500000
In       2.97873248       6.09298670       8.85413953       0.67500000
In      -0.02112132       8.86442772       8.86867919       0.67500000
In       2.97144470       8.95350934       5.78189065       0.67500000
P        7.42966001       1.45067014       4.46066402      -0.67500000
P       10.32686719       1.45014019       1.47433668      -0.67500000
P        7.49748981       4.57089023       1.44121490      -0.67500000
P       10.26429369       4.52805507       4.43095541      -0.67500000
In       5.90447550      -0.08388737      -0.00527659       0.67500000
In       8.88796579      -0.04176228       2.96467464       0.67500000
In       6.16623085       3.05463748       2.93702203       0.67500000
In       8.87028086       2.94373647       0.00394477       0.67500000
P        7.35827300       1.47783695      10.36821433      -0.67500000
P       10.36822683       1.47783991       7.35825790      -0.67500000
P        7.32456778       4.41851609       7.32456425      -0.67500000
P       10.31705234       4.42132889      10.31705254      -0.67500000
In       5.89340021      -0.04832146       5.89340178       0.67500000
In       8.86301160       0.07786149       8.86302362       0.67500000
In       5.91810566       2.96557271       8.88201170       0.67500000
In       8.88200566       2.96557362       5.91810651       0.67500000
P        7.25782834       7.44077344       4.44449590      -0.67500000
P       10.39438525       7.44550489       1.46225707      -0.67500000
P        7.38017450      10.30064435       1.49758155      -0.67500000
P       10.36880581      10.23865185       4.40056157      -0.67500000
In       5.88341190       5.96044465       0.01676784       0.67500000
In       8.85413064       6.09298662       2.97871903       0.67500000
In       5.78189138       8.95350822       2.97143819       0.67500000
In       8.86867671       8.86442875      -0.02111993       0.67500000
P        7.38670312       7.38060245      10.31583179      -0.67500000
P       10.31583228       7.38060302       7.38670092      -0.67500000
P        7.40000812      10.35909778       7.40000455      -0.67500000
P       10.33301318      10.37263497      10.33301081      -0.67500000
In       5.73489128       5.76445910       5.73489237       0.67500000
In       8.82030912       5.87794553       8.82031064       0.67500000
In       5.91941332       8.84282639       8.82786707       0.67500000
In       8.82786429       8.84282518       5.91941737       0.67500000
63
Lattice="11.8016818 -7.6e-06 -7.6e-06 -7.6e-06 11.8016818 -7.8e-06 -7.6e-06 -7.8e-06 11.8016816" Properties=species:S:1:pos:R:3:mulliken_charges:R:1 virial="-0.001343979365248383 3.847269175329341e-05 3.847269175329341e-05 3.847269175329341e-05 -0.001345261788306826 3.847269175329341e-05 3.847269175329341e-05 3.847269175329341e-05 -0.0013426969421899398" fermi_energy=3.4539138232004998 core_to_fermi_energy=15.43004959127955 config_type=Accurate_Bulk energy=-62658.936695673576 pbc="T T T"
P        1.27248828       1.73236590       4.64449521      -0.67500000
P        4.64448841       1.73237114       1.27250456      -0.67500000
P        1.46299803       4.38503453       1.46299827      -0.67500000
In       0.07464752      -0.08768923       0.07464738       0.67500000
In       3.41603018       1.93365415       3.41600636       0.67500000
In      -0.13784333       3.02537003       2.93867412       0.67500000
In       2.93867512       3.02536929      -0.13784300       0.67500000
P        1.46722379       1.44151953      10.32506205      -0.67500000
P        4.46947012       1.42215816       7.44945245      -0.67500000
P        1.43714932       4.56465807       7.49998840      -0.67500000
P        4.43245466       4.52731787      10.25446199      -0.67500000
In      -0.00345094      -0.11728669       5.90397497       0.67500000
In       2.95903843      -0.06042658       8.89964537       0.67500000
In      -0.00394972       2.93505999       8.86764280       0.67500000
In       2.93257624       3.01834946       6.20543871       0.67500000
P        1.58984756       7.29069644       4.39057118      -0.67500000
P        4.39057144       7.29069656       1.58984756      -0.67500000
P        1.65867910      10.50650681       1.65867940      -0.67500000
P        4.25801869      10.61926492       4.25801898      -0.67500000
In      -0.01314844       5.89336792      -0.01314870       0.67500000
In       3.10738472       5.56411090       3.10738465       0.67500000
In       0.18288697       8.85032325       2.88972238       0.67500000
In       2.88972279       8.85032323       0.18288666       0.67500000
P        1.45387975       7.43686613      10.39115466      -0.67500000
P        4.44169544       7.43493171       7.27176278      -0.67500000
P        1.50771071      10.28038955       7.37488776      -0.67500000
P        4.39513629      10.21790297      10.37421229      -0.67500000
In       0.01549902       5.95341464       5.88365024       0.67500000
In       2.96882478       6.08860556       8.85927830       0.67500000
In      -0.01978749       8.86003346       8.86028860       0.67500000
In       2.99816394       8.95729456       5.75510154       0.67500000
P        7.44945270       1.42215819       4.46947030      -0.67500000
P       10.32506237       1.44151962       1.46722443      -0.67500000
P        7.49999018       4.56465978       1.43714849      -0.67500000
P       10.25446276       4.52731708       4.43245463      -0.67500000
In       5.90397548      -0.11728800      -0.00345170       0.67500000
In       8.89964540      -0.06042654       2.95903808       0.67500000
In       6.20543319       3.01834594       2.93257537       0.67500000
In       8.86764281       2.93506020      -0.00395020       0.67500000
P        7.35332559       1.46269387      10.37313543      -0.67500000
P       10.37313645       1.46269410       7.35332449      -0.67500000
P        7.32932299       4.40714926       7.32932262      -0.67500000
P       10.30859366       4.41389603      10.30859367      -0.67500000
In       5.86800717      -0.08412373       5.86800728       0.67500000
In       8.85908574       0.07419984       8.85908625       0.67500000
In       5.91933782       2.95207547       8.88527800       0.67500000
In       8.88527785       2.95207568       5.91933781       0.67500000
P        7.27176325       7.43493177       4.44169512      -0.67500000
P       10.39115493       7.43686616       1.45387966      -0.67500000
P        7.37488826      10.28038944       1.50771038      -0.67500000
P       10.37421287      10.21790350       4.39513567      -0.67500000
In       5.88365010       5.95341464       0.01549879       0.67500000
In       8.85927824       6.08860580       2.96882402       0.67500000
In       5.75510195       8.95729436       2.99816346       0.67500000
In       8.86028867       8.86003382      -0.01978746       0.67500000
P        7.38486540       7.37409778      10.31455191      -0.67500000
P       10.31455216       7.37409793       7.38486501      -0.67500000
P        7.39560903      10.35363446       7.39560852      -0.67500000
P       10.32716832      10.36270771      10.32716785      -0.67500000
In       5.75820124       5.78816954       5.75820106       0.67500000
In       8.81861241       5.87560675       8.81861218       0.67500000
In       5.92189488       8.84204791       8.82942107       0.67500000
In       8.82942118       8.84204781       5.92189510       0.67500000
63
Lattice="11.8016818 -7.6e-06 -7.6e-06 -7.6e-06 11.8016818 -7.8e-06 -7.6e-06 -7.8e-06 11.8016816" Properties=species:S:1:pos:R:3:mulliken_charges:R:1 virial="-0.001343979365248383 3.847269175329341e-05 3.847269175329341e-05 3.847269175329341e-05 -0.001345261788306826 3.847269175329341e-05 3.847269175329341e-05 3.847269175329341e-05 -0.0013426969421899398" fermi_energy=3.4539138232004998 core_to_fermi_energy=15.43004959127955 config_type=Accurate_Bulk energy=-62658.26521589328 pbc="T T T"
P        1.35579769       1.72877569       4.60628058      -0.67500000
P        4.60628083       1.72877599       1.35579756      -0.67500000
P        1.41708068       4.39376548       1.41708062      -0.67500000
In       0.07342193      -0.08956432       0.07342195       0.67500000
In       3.43514343       2.77186520       3.43514332       0.67500000
In      -0.11903797       3.00484838       2.94840438       0.67500000
In       2.94840447       3.00484850      -0.11903809       0.67500000
P        1.46840236       1.43313333      10.33044869      -0.67500000
P        4.48293301       1.38467604       7.47176910      -0.67500000
P        1.42469875       4.54757592       7.51529821      -0.67500000
P        4.42945921       4.50137149      10.25404136      -0.67500000
In       0.03893213      -0.08806420       5.86327898       0.67500000
In       2.95238213      -0.08547115       8.90903511       0.67500000
In      -0.01591366       2.92367291       8.87914013       0.67500000
In       2.91746566       2.96100919       6.29085750       0.67500000
P        1.56181974       7.28036974       4.40791414      -0.67500000
P        4.40791432       7.28036980       1.56181964      -0.67500000
P        1.63672661      10.45428797       1.63672649      -0.67500000
P        4.26362128      10.53810866       4.26362107      -0.67500000
In      -0.04069147       5.89476957      -0.04069162       0.67500000
In       3.01989130       5.65654718       3.01989114       0.67500000
In       0.15619125       8.83449099       2.90264951       0.67500000
In       2.90264970       8.83449105       0.15619113       0.67500000
P        1.44605789       7.43170913      10.37537001      -0.67500000
P        4.44003501       7.41121681       7.29406938      -0.67500000
P        1.50736389      10.27940829       7.35946298      -0.67500000
P        4.40563029      10.21985073      10.37984172      -0.67500000
In       0.00415237       5.92174287       5.88857176       0.67500000
In       2.96079589       6.06391359       8.87023717       0.67500000
In      -0.02073835       8.86142811       8.84438359       0.67500000
In       3.00328401       8.91697691       5.77531528       0.67500000
P        7.47176914       1.38467615       4.48293293      -0.67500000
P       10.33044883       1.43313348       1.46840235      -0.67500000
P        7.51529843       4.54757608       1.42469866      -0.67500000
P       10.25404161       4.50137154       4.42945907      -0.67500000
In       5.86327911      -0.08806405       0.03893212       0.67500000
In       8.90903521      -0.08547100       2.95238210       0.67500000
In       6.29085764       2.96100951       2.91746567       0.67500000
In       8.87914034       2.92367307      -0.01591372       0.67500000
P        7.35415457       1.44537675      10.38195843      -0.67500000
P       10.38195863       1.44537679       7.35415441      -0.67500000
P        7.33005860       4.38843632       7.33005842      -0.67500000
P       10.28923758       4.41272008      10.28923735      -0.67500000
In       5.85547045      -0.09916613       5.85547035       0.67500000
In       8.85381843       0.05678905       8.85381825       0.67500000
In       5.92720985       2.93234618       8.89125711       0.67500000
In       8.89125730       2.93234620       5.92720969       0.67500000
P        7.29406973       7.41121691       4.44003477      -0.67500000
P       10.37537032       7.43170930       1.44605770      -0.67500000
P        7.35946323      10.27940842       1.50736372      -0.67500000
P       10.37984201      10.21985085       4.40563005      -0.67500000
In       5.88857198       5.92174301       0.00415226       0.67500000
In       8.87023754       6.06391370       2.96079569       0.67500000
In       5.77531554       8.91697697       3.00328383       0.67500000
In       8.84438387       8.86142829      -0.02073852       0.67500000
P        7.37815723       7.36493448      10.31492137      -0.67500000
P       10.31492167       7.36493450       7.37815702      -0.67500000
P        7.38694279      10.34310849       7.38694252      -0.67500000
P       10.32521632      10.35292480      10.32521599      -0.67500000
In       5.78868272       5.80378467       5.78868233       0.67500000
In       8.80697191       5.88219299       8.80697166       0.67500000
In       5.92269002       8.83762655       8.83146911       0.67500000
In       8.83146946       8.83762661       5.92268980       0.67500000
63
Lattice="11.8016818 -7.6e-06 -7.6e-06 -7.6e-06 11.8016818 -7.8e-06 -7.6e-06 -7.8e-06 11.8016816" Properties=species:S:1:pos:R:3:mulliken_charges:R:1 virial="-0.001343979365248383 3.847269175329341e-05 3.847269175329341e-05 3.847269175329341e-05 -0.001345261788306826 3.847269175329341e-05 3.847269175329341e-05 3.847269175329341e-05 -0.0013426969421899398" fermi_energy=3.4539138232004998 core_to_fermi_energy=15.43004959127955 config_type=Accurate_Bulk energy=-62658.10446552985 pbc="T T T"
P        1.52110556       1.70584262       4.52024675      -0.67500000
P        4.52024712       1.70584304       1.52110539      -0.67500000
P        1.38773364       4.45794059       1.38773359      -0.67500000
In       0.05453013      -0.09817364       0.05453019       0.67500000
In       3.68877530       3.33957793       3.68877517       0.67500000
In      -0.01635646       2.99089742       2.95415781       0.67500000
In       2.95415790       2.99089756      -0.01635657       0.67500000
P        1.47741028       1.44089818      10.36562756      -0.67500000
P        4.48813148       1.33571279       7.50229561      -0.67500000
P        1.39939593       4.51892607       7.52690838      -0.67500000
P        4.41256702       4.44316354      10.27347263      -0.67500000
In       0.09141964      -0.01448557       5.81695565       0.67500000
In       2.93459325      -0.10269926       8.94054424       0.67500000
In      -0.02835927       2.90602143       8.90509504       0.67500000
In       2.89055062       2.88433619       6.37771501       0.67500000
P        1.49389428       7.33630455       4.44023879      -0.67500000
P        4.44023895       7.33630460       1.49389421      -0.67500000
P        1.58268083      10.37327625       1.58268071      -0.67500000
P        4.26947480      10.44745572       4.26947459      -0.67500000
In      -0.07822993       5.91392436      -0.07823007       0.67500000
In       2.88079274       5.91654450       2.88079260       0.67500000
In       0.08262818       8.83486956       2.90797088       0.67500000
In       2.90797106       8.83486960       0.08262807       0.67500000
P        1.44174776       7.41918974      10.33671413      -0.67500000
P        4.43560764       7.36799729       7.30928088      -0.67500000
P        1.49471712      10.30208506       7.35268651      -0.67500000
P        4.42973971      10.24521498      10.38615995      -0.67500000
In      -0.00903680       5.87647465       5.87707658       0.67500000
In       2.95641009       6.00565792       8.87121402       0.67500000
In      -0.02624521       8.85971925       8.81817236       0.67500000
In       2.99767137       8.89149304       5.82331321       0.67500000
P        7.50229564       1.33571290       4.48813142      -0.67500000
P       10.36562767       1.44089834       1.47741028      -0.67500000
P        7.52690865       4.51892629       1.39939579      -0.67500000
P       10.27347289       4.44316358       4.41256690      -0.67500000
In       5.81695579      -0.01448543       0.09141962       0.67500000
In       8.94054431      -0.10269911       2.93459323       0.67500000
In       6.37771526       2.88433661       2.89055065       0.67500000
In       8.90509525       2.90602158      -0.02835936       0.67500000
P        7.35650271       1.43887186      10.37859772      -0.67500000
P       10.37859794       1.43887191       7.35650256      -0.67500000
P        7.31495974       4.38641625       7.31495958      -0.67500000
P       10.26915450       4.41708786      10.26915427      -0.67500000
In       5.82753410      -0.10254452       5.82753403       0.67500000
In       8.84096145       0.02753633       8.84096126       0.67500000
In       5.92617964       2.91738037       8.87101990       0.67500000
In       8.87102009       2.91738040       5.92617951       0.67500000
P        7.30928124       7.36799738       4.43560742      -0.67500000
P       10.33671446       7.41918994       1.44174757      -0.67500000
P        7.35268677      10.30208518       1.49471696      -0.67500000
P       10.38616022      10.24521510       4.42973949      -0.67500000
In       5.87707678       5.87647479      -0.00903691       0.67500000
In       8.87121441       6.00565805       2.95640989       0.67500000
In       5.82331349       8.89149309       2.99767120       0.67500000
In       8.81817264       8.85971942      -0.02624537       0.67500000
P        7.36011149       7.35023871      10.31512170      -0.67500000
P       10.31512199       7.35023872       7.36011129      -0.67500000
P        7.36531948      10.33131179       7.36531920      -0.67500000
P       10.31277782      10.33163706      10.31277750      -0.67500000
In       5.77227914       5.77776610       5.77227878       0.67500000
In       8.79104443       5.89484570       8.79104419       0.67500000
In       5.91877571       8.83179205       8.82995561       0.67500000
In       8.82995595       8.83179211       5.91877549       0.67500000
63