63
Lattice="11.8016818 -7.6e-06 -7.6e-06 -7.6e-06 11.8016818 -7.8e-06 -7.6e-06 -7.8e-06 11.8016816" Properties=species:S:1:pos:R:3:mulliken_charges:R:1 virial="-0.001343979365248383 3.847269175329341e-05 3.847269175329341e-05 3.847269175329341e-05 -0.001345261788306826 3.847269175329341e-05 3.847269175329341e-05 3.847269175329341e-05 -0.0013426969421899398" fermi_energy=3.4539138232004998 core_to_fermi_energy=15.43004959127955 config_type=Accurate_Bulk energy=-62662.55281800284 pbc="T T T"
P        1.51088116       1.51088110       4.42615851      -0.67500000
P        4.42615864       1.51088126       1.51088124      -0.67500000
P        1.51088119       4.42615860       1.51088110      -0.67500000
In      -0.00125719      -0.00125720      -0.00125720       0.67500000
In       2.94788078       0.00270379       2.94788068       0.67500000
In       0.00270385       2.94788071       2.94788066       0.67500000
In       2.94788078       2.94788074       0.00270380       0.67500000
P        1.47606659       1.47606643      10.32269707      -0.67500000
P        4.42509686       1.51087336       7.34037585      -0.67500000
P        1.51087353       4.42509671       7.34037575      -0.67500000
P        4.42562048       4.42562033      10.32646440      -0.67500000
In       0.01630364       0.01630352       5.89558384       0.67500000
In       2.95567176       0.01629843       8.83495487       0.67500000
In       0.01629862       2.95567161       8.83495480       0.67500000
In       3.06643016       3.06642994       5.78483117       0.67500000
P        1.51087350       7.34037591       4.42509665      -0.67500000
P        4.42509686       7.34037599       1.51087334      -0.67500000
P        1.47606659      10.32269724       1.47606640      -0.67500000
P        4.42562048      10.32646457       4.42562025      -0.67500000
In       0.01630366       5.89558394       0.01630352       0.67500000
In       3.06643016       5.78483133       3.06642993       0.67500000
In       0.01629861       8.83495496       2.95567155       0.67500000
In       2.95567176       8.83495502       0.01629843       0.67500000
P        1.47606170       7.37517922      10.33023823      -0.67500000
P        4.42615065       7.34036550       7.34036537      -0.67500000
P        1.47606170      10.33023841       7.37517911      -0.67500000
P        4.42561754      10.32646057      10.32646039      -0.67500000
In       0.00269841       5.90337649       5.90337639       0.67500000
In       2.94787283       5.90337511       8.84855020       0.67500000
In      -0.00126963       8.85251415       8.85251400       0.67500000
In       2.94787283       8.84855036       5.90337501       0.67500000
P        7.34037594       1.51087347       4.42509675      -0.67500000
P       10.32269725       1.47606659       1.47606655      -0.67500000
P        7.34037592       4.42509682       1.51087347      -0.67500000
P       10.32646462       4.42562043       4.42562035      -0.67500000
In       5.89558394       0.01630368       0.01630367       0.67500000
In       8.83495500       0.01629857       2.95567169       0.67500000
In       5.78483119       3.06643029       3.06643029       0.67500000
In       8.83495499       2.95567175       0.01629857       0.67500000
P        7.37517939       1.47606154      10.33023835      -0.67500000
P       10.33023854       1.47606158       7.37517927      -0.67500000
P        7.34036567       4.42615051       7.34036547      -0.67500000
P       10.32646071       4.42561736      10.32646049      -0.67500000
In       5.90337664       0.00269828       5.90337649       0.67500000
In       8.85251432      -0.00126980       8.85251417       0.67500000
In       5.90337528       2.94787266       8.84855027       0.67500000
In       8.84855050       2.94787268       5.90337512       0.67500000
P        7.34036570       7.34036563       4.42615041      -0.67500000
P       10.33023854       7.37517939       1.47606155      -0.67500000
P        7.37517939      10.33023853       1.47606151      -0.67500000
P       10.32646071      10.32646067       4.42561729      -0.67500000
In       5.90337663       5.90337659       0.00269829       0.67500000
In       8.84855050       5.90337522       2.94787262       0.67500000
In       5.90337528       8.84855044       2.94787260       0.67500000
In       8.85251432       8.85251431      -0.00126980       0.67500000
P        7.37517478       7.37517463      10.32268784      -0.67500000
P       10.32268814       7.37517467       7.37517455      -0.67500000
P        7.37517479      10.32268801       7.37517451      -0.67500000
P       10.32645786      10.32645770      10.32645752      -0.67500000
In       5.78480400       5.78480377       5.78480362       0.67500000
In       8.83494386       5.89557287       8.83494359       0.67500000
In       5.89557301       8.83494367       8.83494352       0.67500000
In       8.83494387       8.83494375       5.89557277       0.67500000
63
Lattice="11.8016818 -7.6e-06 -7.6e-06 -7.6e-06 11.8016818 -7.8e-06 -7.6e-06 -7.8e-06 11.8016816" Properties=species:S:1:pos:R:3:mulliken_charges:R:1 virial="-0.001343979365248383 3.847269175329341e-05 3.847269175329341e-05 3.847269175329341e-05 -0.001345261788306826 3.847269175329341e-05 3.847269175329341e-05 3.847269175329341e-05 -0.0013426969421899398" fermi_energy=3.4539138232004998 core_to_fermi_energy=15.43004959127955 config_type=Accurate_Bulk energy=-62662.352400078664 pbc="T T T"
P        1.72066081       1.72066076       4.36017323      -0.67500000
P        4.48160137       1.50877720       1.39714036      -0.67500000
P        1.50877718       4.48160135       1.39714028      -0.67500000
In       0.01646188       0.01646188       0.03543793       0.67500000
In       3.05285520       0.06477153       2.92337943       0.67500000
In       0.06477158       3.05285514       2.92337939       0.67500000
In       2.95621432       2.95621429      -0.05380755       0.67500000
P        1.46713906       1.46713890      10.31090995      -0.67500000
P        4.49679388       1.45322364       7.47133236      -0.67500000
P        1.45322376       4.49679377       7.47133230      -0.67500000
P        4.45561047       4.45561031      10.32058616      -0.67500000
In       0.14177239       0.14177226       5.75742799       0.67500000
In       2.95654423      -0.03921145       8.87716824       0.67500000
In      -0.03921127       2.95654406       8.87716819       0.67500000
In       3.00252142       3.00252128       6.15148730       0.67500000
P        1.52042685       7.33664241       4.42022317      -0.67500000
P        4.45091385       7.36436526       1.53428756      -0.67500000
P        1.50028067      10.37398056       1.53808613      -0.67500000
P        4.44472496      10.34636305       4.43097262      -0.67500000
In       0.00435187       5.95460294      -0.06842813       0.67500000
In       3.03707511       5.79566387       3.00186698       0.67500000
In       0.02192554       8.84853113       2.96923390       0.67500000
In       2.96195098       8.86753047       0.08195643       0.67500000
P        1.50078262       7.46391037      10.32288178      -0.67500000
P        4.45458126       7.33828286       7.29893757      -0.67500000
P        1.48637340      10.38488884       7.31226856      -0.67500000
P        4.44119718      10.28384731      10.33551369      -0.67500000
In       0.00755070       5.92424376       5.90948473       0.67500000
In       2.98881633       5.97800170       8.88075568       0.67500000
In       0.01817052       8.91713933       8.82211423       0.67500000
In       2.95789120       8.85353022       5.89629044       0.67500000
P        7.33664247       1.52042679       4.42022327      -0.67500000
P       10.37398056       1.50028067       1.53808628      -0.67500000
P        7.36436524       4.45091385       1.53428763      -0.67500000
P       10.34636310       4.44472491       4.43097273      -0.67500000
In       5.95460295       0.00435186      -0.06842802       0.67500000
In       8.84853119       0.02192548       2.96923405       0.67500000
In       5.79566390       3.03707510       3.00186712       0.67500000
In       8.86753046       2.96195097       0.08195654       0.67500000
P        7.46391053       1.50078245      10.32288189      -0.67500000
P       10.38488897       1.48637328       7.31226872      -0.67500000
P        7.33828301       4.45458113       7.29893765      -0.67500000
P       10.28384747       4.44119701      10.33551380      -0.67500000
In       5.92424388       0.00755059       5.90948483       0.67500000
In       8.91713950       0.01817035       8.82211437       0.67500000
In       5.97800187       2.98881616       8.88075573       0.67500000
In       8.85353036       2.95789107       5.89629054       0.67500000
P        7.38356491       7.38356485       4.43577921      -0.67500000
P       10.35170851       7.39546188       1.46288516      -0.67500000
P        7.39546189      10.35170850       1.46288512      -0.67500000
P       10.36832494      10.36832488       4.43703681      -0.67500000
In       5.91794938       5.91794936       0.02684028       0.67500000
In       8.87611481       5.93803164       2.95956769       0.67500000
In       5.93803169       8.87611474       2.95956765       0.67500000
In       8.86735606       8.86735605      -0.00857776       0.67500000
P        7.38186622       7.38186606      10.33047414      -0.67500000
P       10.34035379       7.39445764       7.39462070      -0.67500000
P        7.39445775      10.34035368       7.39462065      -0.67500000
P       10.35346968      10.35346953      10.33776097      -0.67500000
In       5.76489764       5.76489746       5.67614347       0.67500000
In       8.81718407       5.90895588       8.81833910       0.67500000
In       5.90895604       8.81718389       8.81833904       0.67500000
In       8.87135471       8.87135459       5.92159653       0.67500000
63
Lattice="11.8016818 -7.6e-06 -7.6e-06 -7.6e-06 11.8016818 -7.8e-06 -7.6e-06 -7.8e-06 11.8016816" Properties=species:S:1:pos:R:3:mulliken_charges:R:1 virial="-0.001343979365248383 3.847269175329341e-05 3.847269175329341e-05 3.847269175329341e-05 -0.001345261788306826 3.847269175329341e-05 3.847269175329341e-05 3.847269175329341e-05 -0.0013426969421899398" fermi_energy=3.4539138232004998 core_to_fermi_energy=15.43004959127955 config_type=Accurate_Bulk energy=-62661.265131183834 pbc="T T T"
P        2.14465913       2.14465909       4.10702283      -0.67500000
P        4.49794020       1.46814855       1.32797133      -0.67500000
P        1.46814855       4.49794018       1.32797126      -0.67500000
In       0.01084179       0.01084178       0.05169965       0.67500000
In       3.06717521       0.09839548       2.93488665       0.67500000
In       0.09839553       3.06717516       2.93488659       0.67500000
In       2.95167255       2.95167252      -0.06810652       0.67500000
P        1.45393496       1.45393479      10.31145118      -0.67500000
P        4.50479023       1.42912118       7.51258082      -0.67500000
P        1.42912130       4.50479012       7.51258077      -0.67500000
P        4.45736944       4.45736927      10.32171311      -0.67500000
In       0.11908984       0.11908969       5.74760591       0.67500000
In       2.94741172      -0.06228262       8.89672290       0.67500000
In      -0.06228245       2.94741155       8.89672285       0.67500000
In       2.92786597       2.92786584       6.29278173       0.67500000
P        1.51128520       7.32351597       4.42477794      -0.67500000
P        4.44197722       7.35514141       1.54998275      -0.67500000
P        1.49762531      10.39083641       1.57531245      -0.67500000
P        4.43086893      10.35291020       4.43601927      -0.67500000
In      -0.01785812       5.96696771      -0.11228810       0.67500000
In       2.98107795       5.77833981       2.95902753       0.67500000
In       0.01254567       8.83338559       2.97337424       0.67500000
In       2.95782061       8.87128919       0.11351744       0.67500000
P        1.50236328       7.48432017      10.32344216      -0.67500000
P        4.45099113       7.33648629       7.29856685      -0.67500000
P        1.48684964      10.38074904       7.30468417      -0.67500000
P        4.43235120      10.25612014      10.33585040      -0.67500000
In      -0.00305194       5.91670870       5.91996546       0.67500000
In       2.99242039       5.98728060       8.89456686       0.67500000
In       0.00994652       8.91785287       8.82349205       0.67500000
In       2.95469863       8.84373330       5.89328664       0.67500000
P        7.32351603       1.51128515       4.42477804      -0.67500000
P       10.39083641       1.49762531       1.57531259      -0.67500000
P        7.35514139       4.44197722       1.54998283      -0.67500000
P       10.35291025       4.43086888       4.43601938      -0.67500000
In       5.96696773      -0.01785813      -0.11228799       0.67500000
In       8.83338566       0.01254562       2.97337439       0.67500000
In       5.77833984       2.98107794       2.95902766       0.67500000
In       8.87128918       2.95782060       0.11351755       0.67500000
P        7.48432033       1.50236311      10.32344226      -0.67500000
P       10.38074919       1.48684951       7.30468431      -0.67500000
P        7.33648645       4.45099100       7.29856693      -0.67500000
P       10.25612030       4.43235103      10.33585051      -0.67500000
In       5.91670882      -0.00305206       5.91996555       0.67500000
In       8.91785305       0.00994635       8.82349219       0.67500000
In       5.98728077       2.99242021       8.89456691       0.67500000
In       8.84373345       2.95469849       5.89328674       0.67500000
P        7.38818269       7.38818264       4.42898756      -0.67500000
P       10.34800025       7.38543697       1.45800999      -0.67500000
P        7.38543698      10.34800024       1.45800995      -0.67500000
P       10.34474812      10.34474806       4.43011092      -0.67500000
In       5.91292751       5.91292750       0.04159539       0.67500000
In       8.87952873       5.92630393       2.96282373       0.67500000
In       5.92630399       8.87952866       2.96282369       0.67500000
In       8.86094061       8.86094059      -0.00382881       0.67500000
P        7.37405306       7.37405290      10.33812283      -0.67500000
P       10.33373980       7.38830607       7.40431799      -0.67500000
P        7.38830617      10.33373969       7.40431794      -0.67500000
P       10.35005624      10.35005608      10.34588606      -0.67500000
In       5.78409761       5.78409742       5.68138510       0.67500000
In       8.80296035       5.90405492       8.81995989       0.67500000
In       5.90405508       8.80296016       8.81995983       0.67500000
In       8.85830530       8.85830519       5.93289565       0.67500000
63
Lattice="11.8016818 -7.6e-06 -7.6e-06 -7.6e-06 11.8016818 -7.8e-06 -7.6e-06 -7.8e-06 11.8016816" Properties=species:S:1:pos:R:3:mulliken_charges:R:1 virial="-0.001343979365248383 3.847269175329341e-05 3.847269175329341e-05 3.847269175329341e-05 -0.001345261788306826 3.847269175329341e-05 3.847269175329341e-05 3.847269175329341e-05 -0.0013426969421899398" fermi_energy=3.4539138232004998 core_to_fermi_energy=15.43004959127955 config_type=Accurate_Bulk energy=-62660.594950266895 pbc="T T T"
P        2.66767253       2.66767251       3.90007826      -0.67500000
P        4.49780463       1.42680898       1.26392112      -0.67500000
P        1.42680898       4.49780461       1.26392105      -0.67500000
In       0.00187226       0.00187225       0.05989085       0.67500000
In       3.04241228       0.19694486       2.97625995       0.67500000
In       0.19694490       3.04241225       2.97625988       0.67500000
In       2.95048411       2.95048408      -0.09311419       0.67500000
P        1.44125441       1.44125425      10.30643472      -0.67500000
P        4.49808005       1.41439438       7.53629959      -0.67500000
P        1.41439449       4.49807994       7.53629955      -0.67500000
P        4.46180666       4.46180650      10.31284252      -0.67500000
In       0.08864158       0.08864141       5.73573786       0.67500000
In       2.93020376      -0.08193481       8.90050238       0.67500000
In      -0.08193464       2.93020359       8.90050234       0.67500000
In       2.90365223       2.90365212       6.32982474       0.67500000
P        1.50340732       7.31211159       4.43116056      -0.67500000
P        4.42615642       7.32428742       1.58443975      -0.67500000
P        1.49860133      10.41654798       1.60947276      -0.67500000
P        4.40366544      10.38351197       4.43241383      -0.67500000
In      -0.05015302       5.96831069      -0.14371824       0.67500000
In       2.89377529       5.74585118       2.93591328       0.67500000
In       0.00523303       8.83251339       2.97637018       0.67500000
In       2.95370925       8.86612623       0.14343161       0.67500000
P        1.49676455       7.49017573      10.33081121      -0.67500000
P        4.44243930       7.33416216       7.29522639      -0.67500000
P        1.47222041      10.36955597       7.30065873      -0.67500000
P        4.41715059      10.22893674      10.33204267      -0.67500000
In      -0.00450755       5.90371166       5.92793395       0.67500000
In       2.98665909       5.99243750       8.90107999       0.67500000
In       0.00558721       8.91520019       8.82313405       0.67500000
In       2.95201222       8.84777233       5.89268370       0.67500000
P        7.31211165       1.50340727       4.43116066      -0.67500000
P       10.41654798       1.49860133       1.60947290      -0.67500000
P        7.32428741       4.42615642       1.58443982      -0.67500000
P       10.38351203       4.40366540       4.43241393      -0.67500000
In       5.96831071      -0.05015303      -0.14371813       0.67500000
In       8.83251345       0.00523297       2.97637033       0.67500000
In       5.74585121       2.89377526       2.93591338       0.67500000
In       8.86612622       2.95370924       0.14343171       0.67500000
P        7.49017589       1.49676439      10.33081130      -0.67500000
P       10.36955612       1.47222028       7.30065886      -0.67500000
P        7.33416232       4.44243917       7.29522646      -0.67500000
P       10.22893690       4.41715042      10.33204278      -0.67500000
In       5.90371178      -0.00450767       5.92793404       0.67500000
In       8.91520037       0.00558704       8.82313419       0.67500000
In       5.99243767       2.98665891       8.90108003       0.67500000
In       8.84777247       2.95201208       5.89268380       0.67500000
P        7.38667687       7.38667682       4.43081802      -0.67500000
P       10.34178483       7.37653402       1.45923332      -0.67500000
P        7.37653403      10.34178482       1.45923328      -0.67500000
P       10.31916500      10.31916494       4.43261914      -0.67500000
In       5.90559305       5.90559304       0.05697724       0.67500000
In       8.88264272       5.91248955       2.97228528       0.67500000
In       5.91248960       8.88264266       2.97228523       0.67500000
In       8.85354419       8.85354418       0.00135072       0.67500000
P        7.36588183       7.36588167      10.34542033      -0.67500000
P       10.32905490       7.37865854       7.40954779      -0.67500000
P        7.37865864      10.32905480       7.40954774      -0.67500000
P       10.34242048      10.34242033      10.34978247      -0.67500000
In       5.78741624       5.78741607       5.68881603       0.67500000
In       8.79109085       5.89821183       8.81983107       0.67500000
In       5.89821199       8.79109067       8.81983101       0.67500000
In       8.85012836       8.85012824       5.94167697       0.67500000
63
Lattice="11.8016818 -7.6e-06 -7.6e-06 -7.6e-06 11.8016818 -7.8e-06 -7.6e-06 -7.8e-06 11.8016816" Properties=species:S:1:pos:R:3:mulliken_charges:R:1 virial="-0.001343979365248383 3.847269175329341e-05 3.847269175329341e-05 3.847269175329341e-05 -0.001345261788306826 3.847269175329341e-05 3.847269175329341e-05 3.847269175329341e-05 -0.0013426969421899398" fermi_energy=3.4539138232004998 core_to_fermi_energy=15.43004959127955 config_type=Accurate_Bulk energy=-62660.59517287565 pbc="T T T"
P        3.23341798       3.23341795       3.90011408      -0.67500000
P        4.47397634       1.40299557       1.26395844      -0.67500000
P        1.40299558       4.47397633       1.26395837      -0.67500000
In      -0.00478457      -0.00478458       0.05697824       0.67500000
In       3.00697959       0.15492048       2.93591499       0.67500000
In       0.15492051       3.00697957       2.93591489       0.67500000
In       2.95032554       2.95032551      -0.09308758       0.67500000
P        1.43899266       1.43899249      10.31285789      -0.67500000
P        4.48639440       1.40271448       7.53628792      -0.67500000
P        1.40271458       4.48639429       7.53628788      -0.67500000
P        4.45953017       4.45953000      10.30643817      -0.67500000
In       0.11337518       0.11337500       5.68882512       0.67500000
In       2.91413198      -0.09163508       8.90108005       0.67500000
In      -0.09163491       2.91413181       8.90108000       0.67500000
In       2.99717853       2.99717841       6.32980511       0.67500000
P        1.49711057       7.31899055       4.43241953      -0.67500000
P        4.40219532       7.28595236       1.60945571      -0.67500000
P        1.47462837      10.37817777       1.58441704      -0.67500000
P        4.39738323      10.39036290       4.43115550      -0.67500000
In      -0.06750126       5.95094151      -0.14370165       0.67500000
In       2.85839067       5.70391662       2.97624547       0.67500000
In      -0.01170117       8.81984410       2.97228090       0.67500000
In       2.94708801       8.83636156       0.14341379       0.67500000
P        1.48362437       7.47352345      10.33205019      -0.67500000
P        4.42855868       7.33291618       7.30066648      -0.67500000
P        1.45834640      10.36831140       7.29522878      -0.67500000
P        4.40401617      10.21230207      10.33080147      -0.67500000
In      -0.00291890       5.90531256       5.92793364       0.67500000
In       2.97058219       5.98272179       8.90050275       0.67500000
In       0.00257487       8.91138333       8.81983548       0.67500000
In       2.94878136       8.85470714       5.89268216       0.67500000
P        7.31899061       1.49711053       4.43241963      -0.67500000
P       10.37817776       1.47462837       1.58441717      -0.67500000
P        7.28595235       4.40219533       1.60945577      -0.67500000
P       10.39036296       4.39738318       4.43115560      -0.67500000
In       5.95094153      -0.06750128      -0.14370155       0.67500000
In       8.81984416      -0.01170123       2.97228105       0.67500000
In       5.70391666       2.85839064       2.97624555       0.67500000
In       8.83636154       2.94708800       0.14341389       0.67500000
P        7.47352361       1.48362420      10.33205029      -0.67500000
P       10.36831156       1.45834627       7.29522891      -0.67500000
P        7.33291634       4.42855855       7.30066655      -0.67500000
P       10.21230223       4.40401600      10.33080157      -0.67500000
In       5.90531268      -0.00291902       5.92793373       0.67500000
In       8.91138351       0.00257471       8.81983562       0.67500000
In       5.98272196       2.97058202       8.90050280       0.67500000
In       8.85470728       2.94878121       5.89268226       0.67500000
P        7.38329388       7.38329383       4.43262333      -0.67500000
P       10.32593816       7.36068872       1.45923158      -0.67500000
P        7.36068873      10.32593815       1.45923154      -0.67500000
P       10.31579186      10.31579181       4.43081075      -0.67500000
In       5.89893034       5.89893033       0.05987994       0.67500000
In       8.86997185       5.89556083       2.97636711       0.67500000
In       5.89556089       8.86997179       2.97636706       0.67500000
In       8.84893495       8.84893494       0.00134736       0.67500000
P        7.36004190       7.36004174      10.34978550      -0.67500000
P       10.32380576       7.37341531       7.40954672      -0.67500000
P        7.37341542      10.32380565       7.40954667      -0.67500000
P       10.33658281      10.33658265      10.34541406      -0.67500000
In       5.81215189       5.81215172       5.73575093       0.67500000
In       8.78727792       5.89520078       8.82313181       0.67500000
In       5.89520095       8.78727774       8.82313174       0.67500000
In       8.85234038       8.85234027       5.94167108       0.67500000
63
Lattice="11.8016818 -7.6e-06 -7.6e-06 -7.6e-06 11.8016818 -7.8e-06 -7.6e-06 -7.8e-06 11.8016816" Properties=species:S:1:pos:R:3:mulliken_charges:R:1 virial="-0.001343979365248383 3.847269175329341e-05 3.847269175329341e-05 3.847269175329341e-05 -0.001345261788306826 3.847269175329341e-05 3.847269175329341e-05 3.847269175329341e-05 -0.0013426969421899398" fermi_energy=3.4539138232004998 core_to_fermi_energy=15.43004959127955 config_type=Accurate_Bulk energy=-62661.26559476867 pbc="T T T"
P        3.75633852       3.75633848       4.10713652      -0.67500000
P        4.43264129       1.40286803       1.32799439      -0.67500000
P        1.40286805       4.43264129       1.32799431      -0.67500000
In      -0.01211901      -0.01211902       0.04159973       0.67500000
In       2.91970276       0.12246354       2.95904974       0.67500000
In       0.12246356       2.91970274       2.95904962       0.67500000
In       2.94913677       2.94913674      -0.06809972       0.67500000
P        1.44342563       1.44342547      10.32171836      -0.67500000
P        4.47167046       1.39600482       7.51257067      -0.67500000
P        1.39600493       4.47167034       7.51257063      -0.67500000
P        4.44685473       4.44685456      10.31144839      -0.67500000
In       0.11669929       0.11669911       5.68139871       0.67500000
In       2.90837673      -0.08648121       8.89456729       0.67500000
In      -0.08648104       2.90837655       8.89456724       0.67500000
In       2.97290099       2.97290087       6.29275851       0.67500000
P        1.46991602       7.34957635       4.43602151      -0.67500000
P        4.40317388       7.31166075       1.57530027      -0.67500000
P        1.45881862      10.34734298       1.54997731      -0.67500000
P        4.38950419      10.37896257       4.42477207      -0.67500000
In      -0.06615508       5.91865791      -0.11227674       0.67500000
In       2.83362340       5.80243424       2.93486582       0.67500000
In      -0.02550842       8.82296186       2.96282432       0.67500000
In       2.94298095       8.83120446       0.11350799       0.67500000
P        1.46843155       7.44634663      10.33585599      -0.67500000
P        4.41393806       7.32172164       7.30468208      -0.67500000
P        1.44979734      10.36598821       7.29856747      -0.67500000
P        4.39842212      10.21815926      10.32343541      -0.67500000
In      -0.01591286       5.90385028       5.91996152       0.67500000
In       2.95338189       5.96307333       8.89671526       0.67500000
In      -0.00326697       8.89951392       8.81996430       0.67500000
In       2.94609503       8.85874475       5.89328535       0.67500000
P        7.34957640       1.46991598       4.43602161      -0.67500000
P       10.34734296       1.45881862       1.54997744      -0.67500000
P        7.31166074       4.40317389       1.57530033      -0.67500000
P       10.37896263       4.38950414       4.42477217      -0.67500000
In       5.91865792      -0.06615509      -0.11227663       0.67500000
In       8.82296192      -0.02550848       2.96282448       0.67500000
In       5.80243429       2.83362336       2.93486588       0.67500000
In       8.83120445       2.94298094       0.11350809       0.67500000
P        7.44634679       1.46843138      10.33585609      -0.67500000
P       10.36598836       1.44979720       7.29856759      -0.67500000
P        7.32172178       4.41393793       7.30468214      -0.67500000
P       10.21815942       4.39842196      10.32343552      -0.67500000
In       5.90385040      -0.01591298       5.91996161       0.67500000
In       8.89951410      -0.00326714       8.81996444       0.67500000
In       5.96307351       2.95338172       8.89671531       0.67500000
In       8.85874489       2.94609489       5.89328545       0.67500000
P        7.35771155       7.35771149       4.43011373      -0.67500000
P       10.31704178       7.35448006       1.45800774      -0.67500000
P        7.35448006      10.31704177       1.45800770      -0.67500000
P       10.31428929      10.31428924       4.42898337      -0.67500000
In       5.88996616       5.88996615       0.05168846       0.67500000
In       8.86910287       5.88825201       2.97336792       0.67500000
In       5.88825207       8.86910281       2.97336787       0.67500000
In       8.84154059       8.84154058      -0.00383350       0.67500000
P        7.35240921       7.35240906      10.34588639      -0.67500000
P       10.31416178       7.36872957       7.40431533      -0.67500000
P        7.36872967      10.31416167       7.40431528      -0.67500000
P       10.32841326      10.32841310      10.33811680      -0.67500000
In       5.78167735       5.78167720       5.74758112       0.67500000
In       8.78462467       5.89084011       8.82348592       0.67500000
In       5.89084027       8.78462449       8.82348586       0.67500000
In       8.84416235       8.84416224       5.93289103       0.67500000
63