 +-------------------------------------------------+
 |                                                 |
 |      CCC   AA    SSS  TTTTT  EEEEE  PPPP        |
 |     C     A  A  S       T    E      P   P       |
 |     C     AAAA   SS     T    EEE    PPPP        |
 |     C     A  A     S    T    E      P           |
 |      CCC  A  A  SSS     T    EEEEE  P           |
 |                                                 |
 +-------------------------------------------------+
 |                                                 |
 | Welcome to Academic Release CASTEP version 24.1 |
 | Ab Initio Total Energy Program                  |
 |                                                 |
 | Authors:                                        |
 | M. Segall, M. Probert, C. Pickard, P. Hasnip,   |
 | S. Clark, K. Refson, J. R. Yates,               |
 | A. Bartok-Partay, M. Payne                      |
 |                                                 |
 | Contributors:                                   |
 | P. Lindan, P. Haynes, J. White, V. Milman,      |
 | N. Govind, M. Gibson, P. Tulip, V. Cocula,      |
 | B. Montanari, D. Quigley, M. Glover,            |
 | L. Bernasconi, A. Perlov, M. Plummer,           |
 | E. McNellis, J. Meyer, J. Gale, D. Jochym       |
 | J. Aarons, B. Walker, R. Gillen, D. Jones       |
 | T. Green, I. J. Bush, C. J. Armstrong,          |
 | E. J. Higgins, E. L. Brown, M. S. McFly,        |
 | J. Wilkins, B-C. Shih, P. J. P. Byrne,          |
 | R. J. Maurer, J. C. Womack, J. Dziedzic,        |
 | L. LeBlanc, T. K. Stenczel, J. Kermode,         |
 | S. Sturniolo, B. Shi, B. Durham, M. Evans,      |
 | M. J. Smith, A. Tamerus, Z. Hawkhead,           |
 | V. Ravindran, T. Hollins, S. A. Joyce,          |
 | R. T. Strong, A. M. Reilly, S. J. Donaldson     |
 |                                                 |
 | Copyright (c) 2000 - 2023                       |
 |                                                 |
 |     Distributed under license from Cambridge    |
 |     Enterprise for academic use only.           |
 |                                                 |
 | Please cite                                     |
 |                                                 |
 |     "First principles methods using CASTEP"     |
 |                                                 |
 |         Zeitschrift fuer Kristallographie       |
 |           220(5-6) pp. 567-570 (2005)           |
 |                                                 |
 | S. J. Clark, M. D. Segall, C. J. Pickard,       |
 | P. J. Hasnip, M. J. Probert, K. Refson,         |
 | M. C. Payne                                     |
 |                                                 |
 |       in all publications arising from          |
 |              your use of CASTEP                 |
 |                                                 |
 +-------------------------------------------------+
 |                                                 |
 |              http://www.castep.org              |
 |                                                 |
 +-------------------------------------------------+



 Compiled for  GNU 11.2.0 on 04-04-2024 18:39:17
 from code version 6355fd106 Castep241_branch Thu Mar 7 17:56:19 2024 +0000
 Compiler: GNU Fortran 11.2.0; Optimisation: FAST
 Comms   : MPI VERSION : CRAY MPICH version 8.1.23.14 (ANL base 3.4a2)
 MATHLIBS: default (LAPACK version 3.10.1)
 FFT Lib : fftw3 version commercial-fftw-3.3.10-sse2-avx-avx2-avx2_128
 Fundamental constants values: CODATA 2018

 Run started: Tue, 29 Jul 2025 20:47:21 +0100

 Atomic calculation performed for P: 1s2 2s2 2p6 3s2 3p3

 Converged in 47 iterations to an ae energy of -9309.074 eV

   ============================================================                
   | Pseudopotential Report - Date of generation 29-07-2025   |                
   ------------------------------------------------------------                
   | Element: P Ionic charge:  5.00 Level of theory: RSCAN    |                
   | Atomic Solver: Koelling-Harmon                           |                
   |                                                          |                
   |               Reference Electronic Structure             |                
   |         Orbital         Occupation         Energy        |                
   |            3s              2.000           -0.535        |                
   |            3p              3.000           -0.209        |                
   |                                                          |                
   |                 Pseudopotential Definition               |                
   |        Beta     l      e      Rc     scheme   norm       |                
   |          1      0   -0.535   1.807     qc      0         |                
   |          2      0    0.250   1.807     qc      0         |                
   |          3      1   -0.209   1.807     qc      0         |                
   |          4      1    0.250   1.807     qc      0         |                
   |          5      2    0.000   1.807     qc      0         |                
   |          6      2    0.250   1.807     qc      0         |                
   |         loc     3    0.000   1.807     pn      0         |                
   |                                                          |                
   | Augmentation charge Rinner = 1.263                       |                
   | Partial core correction Rc = 1.263                       |                
   ------------------------------------------------------------                
   | "3|1.8|4|4|5|30:31:32"                                   |                
   ------------------------------------------------------------                
   |      Author: Chris J. Pickard, Cambridge University      |                
   ============================================================                
 Warning: otfg_output_psp cannot write out meta-GGA pseudopotentials presently.

 Atomic calculation performed for In:
 1s2 2s2 2p6 3s2 3p6 3d10 4s2 4p6 4d10 5s2 5p1

 Converged in 84 iterations to an ae energy of -160093.328 eV

   ============================================================                
   | Pseudopotential Report - Date of generation 29-07-2025   |                
   ------------------------------------------------------------                
   | Element: In Ionic charge: 13.00 Level of theory: RSCAN   |                
   | Atomic Solver: Koelling-Harmon                           |                
   |                                                          |                
   |               Reference Electronic Structure             |                
   |         Orbital         Occupation         Energy        |                
   |            4d             10.000           -0.711        |                
   |            5s              2.000           -0.313        |                
   |            5p              1.000           -0.095        |                
   |                                                          |                
   |                 Pseudopotential Definition               |                
   |        Beta     l      e      Rc     scheme   norm       |                
   |          1      0   -0.313   2.501     qc      0         |                
   |          2      0    0.250   2.501     qc      0         |                
   |          3      1   -0.095   2.501     qc      0         |                
   |          4      1    0.250   2.501     qc      0         |                
   |          5      2   -0.711   2.207     qc      0         |                
   |          6      2    0.250   2.207     qc      0         |                
   |         loc     3    0.000   2.501     pn      0         |                
   |                                                          |                
   | Augmentation charge Rinner = 1.504                       |                
   | Partial core correction Rc = 1.504                       |                
   ------------------------------------------------------------                
   | "3|2.5|2.5|1.5|7|8|9|50:51:42U2.2U2.2"                   |                
   ------------------------------------------------------------                
   |      Author: Chris J. Pickard, Cambridge University      |                
   ============================================================                
 Warning: otfg_output_psp cannot write out meta-GGA pseudopotentials presently.

 Pseudo atomic calculation performed for P 3s2 3p3

 Converged in 23 iterations to a total energy of -208.0292 eV

 Pseudo atomic calculation performed for In 4d10 5s2 5p1

 Converged in 42 iterations to a total energy of -1747.4501 eV
 Calculation parallelised over 108 processes.
 Data is distributed by G-vector(3-way) and k-point(36-way)
 Each process may use up to 16 threads.

 ************************************ Title ************************************
 

 ***************************** General Parameters ******************************
  
 output verbosity                               : normal  (1)
 write checkpoint data to                       : In_Vacancy_Migration_15->60_Singlepoints_1.check
 type of calculation                            : single point energy
 stress calculation                             : off
 density difference calculation                 : off
 electron localisation func (ELF) calculation   : off
 Hirshfeld analysis                             : on
 polarisation (Berry phase) analysis            : off
 molecular orbital projected DOS                : off
 deltaSCF calculation                           : off
 unlimited duration calculation
 timing information                             : on
 memory usage estimate                          : on
 write extra output files                       : on
 write final potential to formatted file        : off
 write final density to formatted file          : off
 write BibTeX reference list                    : on
 write OTFG pseudopotential files               : on
 write electrostatic potential file             : on
 write bands file                               : on
 checkpoint writing                             : off
  
 output         length unit                     : A
 output           mass unit                     : amu
 output           time unit                     : ps
 output         charge unit                     : e
 output           spin unit                     : hbar/2
 output         energy unit                     : eV
 output          force unit                     : eV/A
 output       velocity unit                     : A/ps
 output       pressure unit                     : GPa
 output     inv_length unit                     : 1/A
 output      frequency unit                     : cm-1
 output force constant unit                     : eV/A**2
 output         volume unit                     : A**3
 output   IR intensity unit                     : (D/A)**2/amu
 output         dipole unit                     : D
 output         efield unit                     : eV/A/e
 output        entropy unit                     : J/mol/K
 output    efield chi2 unit                     : pm/V
  
 wavefunctions paging                           : none
 random number generator seed                   :  204721510
 data distribution                              : optimal for this architecture
 optimization strategy                          : balance speed and memory

 *********************** Exchange-Correlation Parameters ***********************
  
 using functional                               : RSCAN
 relativistic treatment                         : Koelling-Harmon
 DFT+D: Semi-empirical dispersion correction    : off

 ************************* Pseudopotential Parameters **************************
  
 pseudopotential representation                 : reciprocal space
 <beta|phi> representation                      : reciprocal space
 spin-orbit coupling                            : off

 **************************** Basis Set Parameters *****************************
  
 plane wave basis set cut-off                   :   900.0000   eV
 size of standard grid                          :     2.0000
 size of   fine   gmax                          :    30.7390   1/A
 finite basis set correction                    : none

 **************************** Electronic Parameters ****************************
  
 number of  electrons                           :  563.0    
 net charge of system                           :  0.000    
 net spin   of system                           :  1.000    
 number of  up  spins                           :  282.0    
 number of down spins                           :  281.0    
 treating system as spin-polarized
 number of bands                                :        338

 ********************* Electronic Minimization Parameters **********************
  
 Method: Treating system as metallic with density mixing treatment of electrons,
         and number of  SD  steps               :          1
         and number of  CG  steps               :          4
  
 total energy / atom convergence tol.           : 0.1000E-07   eV
 eigen-energy convergence tolerance             : 0.2234E-08   eV
 max force / atom convergence tol.              : ignored
 convergence tolerance window                   :          3   cycles
 max. number of SCF cycles                      :        100
 number of fixed-spin iterations                :         10
 smearing scheme                                : Gaussian
 smearing width                                 : 0.2000       eV
 Fermi energy convergence tolerance             : 0.2721E-13   eV
 periodic dipole correction                     : NONE

 ************************** Density Mixing Parameters **************************
  
 density-mixing scheme                          : Pulay
 max. length of mixing history                  :         20
 charge density mixing amplitude                : 0.5000    
   spin density mixing amplitude                :  2.000    
 cut-off energy for mixing                      :  900.0       eV

 *********************** Population Analysis Parameters ************************
  
 Population analysis with cutoff                :  3.000       A
 Population analysis output                     : summary and pdos components

 *******************************************************************************
  

                           -------------------------------
                                      Unit Cell
                           -------------------------------
        Real Lattice(A)                      Reciprocal Lattice(1/A)
    11.8016820    -0.0000080    -0.0000080        0.532397442   0.000000361   0.000000361
    -0.0000080    11.8016820    -0.0000080        0.000000361   0.532397442   0.000000361
    -0.0000080    -0.0000080    11.8016820        0.000000361   0.000000361   0.532397442

                       Lattice parameters(A)       Cell Angles
                    a =     11.801682          alpha =   90.000078
                    b =     11.801682          beta  =   90.000078
                    c =     11.801682          gamma =   90.000078

                       Current cell volume =          1643.734705       A**3
                                   density =             2.768402   AMU/A**3
                                           =             4.597040     g/cm^3

                           -------------------------------
                                     Cell Contents
                           -------------------------------
                         Total number of ions in cell =   63
                      Total number of species in cell =    2
                        Max number of any one species =   32

            xxxxxxxxxxxxxxxxxxxxxxxxxxxxxxxxxxxxxxxxxxxxxxxxxxxxxxxxxxxx
            x  Element    Atom        Fractional coordinates of atoms  x
            x            Number           u          v          w      x
            x----------------------------------------------------------x
            x  P            1         0.136438   0.136438   0.386491   x 
            x  P            2         0.376120   0.126946   0.129269   x 
            x  P            3         0.126946   0.376120   0.129269   x 
            x  P            4         0.406357   0.406357   0.373767   x 
            x  P            5         0.127997   0.127997   0.874963   x 
            x  P            6         0.380846   0.132673   0.623075   x 
            x  P            7         0.132673   0.380846   0.623075   x 
            x  P            8         0.375567   0.375567   0.874861   x 
            x  P            9         0.128155   0.627802   0.372673   x 
            x  P           10         0.376663   0.630324   0.118909   x 
            x  P           11         0.126676   0.879134   0.126357   x 
            x  P           12         0.375044   0.874947   0.376365   x 
            x  P           13         0.121585   0.629281   0.879459   x 
            x  P           14         0.379659   0.616956   0.620659   x 
            x  P           15         0.125077   0.876476   0.624734   x 
            x  P           16         0.376627   0.880592   0.869880   x 
            x  P           17         0.627802   0.128155   0.372673   x 
            x  P           18         0.879134   0.126676   0.126357   x 
            x  P           19         0.630324   0.376663   0.118909   x 
            x  P           20         0.874947   0.375044   0.376365   x 
            x  P           21         0.629281   0.121585   0.879459   x 
            x  P           22         0.876476   0.125077   0.624734   x 
            x  P           23         0.616956   0.379659   0.620659   x 
            x  P           24         0.880592   0.376627   0.869880   x 
            x  P           25         0.604114   0.604114   0.386353   x 
            x  P           26         0.871999   0.624420   0.128741   x 
            x  P           27         0.624420   0.871999   0.128741   x 
            x  P           28         0.872509   0.872509   0.376258   x 
            x  P           29         0.626394   0.626394   0.869978   x 
            x  P           30         0.874524   0.625209   0.621653   x 
            x  P           31         0.625210   0.874524   0.621653   x 
            x  P           32         0.875061   0.875061   0.876702   x 
            x  In           1         0.001940   0.001940  -0.001045   x 
            x  In           2         0.248541   0.004542   0.256696   x 
            x  In           3         0.004542   0.248541   0.256696   x 
            x  In           4         0.252635   0.252635   0.002825   x 
            x  In           5         0.002043   0.002043   0.496757   x 
            x  In           6         0.251249   0.006851   0.744109   x 
            x  In           7         0.006851   0.251249   0.744109   x 
            x  In           8         0.281389   0.281389   0.498479   x 
            x  In           9        -0.000950   0.499753   0.004374   x 
            x  In          10         0.257729   0.503712   0.249037   x 
            x  In          11         0.000217   0.751719   0.249172   x 
            x  In          12         0.251821   0.757184  -0.003397   x 
            x  In          13         0.003104   0.501732   0.497390   x 
            x  In          14         0.250372   0.507834   0.753964   x 
            x  In          15        -0.002157   0.750950   0.748485   x 
            x  In          16         0.254267   0.747091   0.504788   x 
            x  In          17         0.499753  -0.000950   0.004374   x 
            x  In          18         0.751719   0.000217   0.249172   x 
            x  In          19         0.503712   0.257729   0.249037   x 
            x  In          20         0.757184   0.251821  -0.003397   x 
            x  In          21         0.501732   0.003104   0.497390   x 
            x  In          22         0.750950  -0.002157   0.748485   x 
            x  In          23         0.507834   0.250372   0.753964   x 
            x  In          24         0.747091   0.254267   0.504788   x 
            x  In          25         0.502016   0.502016  -0.003797   x 
            x  In          26         0.743637   0.501109   0.256798   x 
            x  In          27         0.501109   0.743637   0.256798   x 
            x  In          28         0.748423   0.748423   0.000339   x 
            x  In          29         0.748181   0.497280   0.743399   x 
            x  In          30         0.497280   0.748181   0.743399   x 
            x  In          31         0.738444   0.738444   0.493889   x 
            xxxxxxxxxxxxxxxxxxxxxxxxxxxxxxxxxxxxxxxxxxxxxxxxxxxxxxxxxxxx


                         No user defined ionic velocities

                           -------------------------------
                                   Details of Species
                           -------------------------------

                               Mass of species in AMU
                                    P   30.9737600
                                    In  114.8180000

                          Electric Quadrupole Moment (Barn)
                                    P    1.0000000 No Isotope Defined
                                    In    0.7700000 Isotope115

                          Files used for pseudopotentials:
                                    P 3|1.8|4|4|5|30:31:32
                                    In 3|2.5|2.5|1.5|7|8|9|50:51:42U2.2U2.2

                           -------------------------------
                              k-Points For BZ Sampling
                           -------------------------------
                       MP grid size for SCF calculation is  4  4  4
                            with an offset of   0.125  0.125  0.125
                       Number of kpoints used =            36

                           -------------------------------
                               Symmetry and Constraints
                           -------------------------------

                      Maximum deviation from symmetry =  0.00000         ANG

                      Number of symmetry operations   =           1
                      Number of ionic constraints     =           3
                      Point group of crystal =     1: C1, 1, 1
                      Space group of crystal =     8: Cm, C -2y

             Set iprint > 1 for details on symmetry rotations/translations

                         Centre of mass is constrained
             Set iprint > 1 for details of linear ionic constraints

                         Number of cell constraints= 0
                         Cell constraints are:  1 2 3 4 5 6

                         External pressure/stress (GPa)
                          0.00000   0.00000   0.00000
                                    0.00000   0.00000
                                              0.00000
 
+---------------- MEMORY AND SCRATCH DISK ESTIMATES PER PROCESS --------------+
|                                                     Memory          Disk    |
| Baseline code, static data and system overhead      368.0 MB         0.0 MB |
| BLAS internal memory storage                          0.0 MB         0.0 MB |
| Model and support data                             4296.9 MB         0.0 MB |
| Electronic energy minimisation requirements        1299.4 MB         0.0 MB |
| Force calculation requirements                      127.4 MB         0.0 MB |
|                                               ----------------------------- |
| Approx. total storage required per process         5964.3 MB         0.0 MB |
|                                                                             |
| Requirements will fluctuate during execution and may exceed these estimates |
+-----------------------------------------------------------------------------+
Calculating approximate eigenstates for fixed initial Hamiltonian
Cut-off for approx. calculation is   89.988 eV
Improving approx. states at cut-off of  450.000 eV
Resetting cut-off to  900.000 eV
Calculating total energy with cut-off of  900.000 eV.
------------------------------------------------------------------------ <-- SCF
SCF loop      Energy           Fermi           Energy gain       Timer   <-- SCF
                               energy          per atom          (sec)   <-- SCF
------------------------------------------------------------------------ <-- SCF
Initial  -6.12895479E+004  0.00000000E+000                       423.78  <-- SCF
      1  -6.10539409E+004  1.93480455E+000  -3.73979310E+000     862.74  <-- SCF
      2  -6.10542828E+004  1.93468365E+000   5.42704726E-003    1170.67  <-- SCF
      3  -6.11179443E+004  2.25421539E+000   1.01049910E+000    1512.33  <-- SCF
      4  -6.11292154E+004  2.32811457E+000   1.78907105E-001    1978.54  <-- SCF
      5  -6.11357839E+004  2.43379824E+000   1.04260868E-001    2318.73  <-- SCF
      6  -6.11240208E+004  2.55712089E+000  -1.86715046E-001    2647.84  <-- SCF
      7  -6.11224876E+004  2.59866181E+000  -2.43371187E-002    2992.03  <-- SCF
      8  -6.11227505E+004  2.64193572E+000   4.17330301E-003    3358.27  <-- SCF
      9  -6.11235858E+004  2.65911195E+000   1.32582158E-002    3709.21  <-- SCF
     10  -6.11238805E+004  2.65006808E+000   4.67927974E-003    4054.77  <-- SCF
     11  -6.11239595E+004  2.64979622E+000   1.25271221E-003    4417.11  <-- SCF
     12  -6.11239840E+004  2.64853041E+000   3.89516201E-004    4761.33  <-- SCF
     13  -6.11239931E+004  2.64694474E+000   1.44289770E-004    5100.83  <-- SCF
     14  -6.11239937E+004  2.64662916E+000   9.82667684E-006    5450.80  <-- SCF
     15  -6.11239938E+004  2.64635260E+000   1.54434833E-006    5807.80  <-- SCF
     16  -6.11239940E+004  2.64639566E+000   2.53229915E-006    6125.30  <-- SCF
     17  -6.11239942E+004  2.64661654E+000   2.78135504E-006    6483.87  <-- SCF
     18  -6.11239942E+004  2.64670503E+000   9.14733040E-007    6825.97  <-- SCF
     19  -6.11239943E+004  2.64669333E+000   8.79021972E-007    7140.02  <-- SCF
     20  -6.11239943E+004  2.64667070E+000   3.41626495E-007    7439.65  <-- SCF
     21  -6.11239943E+004  2.64670950E+000   3.06979028E-008    7701.76  <-- SCF
     22  -6.11239943E+004  2.64672575E+000   4.59440297E-009    7942.34  <-- SCF
     23  -6.11239943E+004  2.64672317E+000   3.65690199E-009    8175.68  <-- SCF
------------------------------------------------------------------------ <-- SCF
 
Integrated Spin Density     =     1.33045     hbar/2
Integrated |Spin Density|   =     1.54695     hbar/2
 
Final energy, E             =  -61123.76981920     eV
Final free energy (E-TS)    =  -61123.99428755     eV
(energies not corrected for finite basis set)
 
NB est. 0K energy (E-0.5TS)      =  -61123.88205338     eV
 

 ************************** Forces **************************
 *                                                          *
 *               Cartesian components (eV/A)                *
 * -------------------------------------------------------- *
 *                         x            y            z      *
 *                                                          *
 * P               1      0.03089      0.03088     -0.06383 *
 * P               2     -0.02027      0.02847     -0.02006 *
 * P               3      0.02847     -0.02027     -0.02006 *
 * P               4     -0.22896     -0.22896      0.12748 *
 * P               5     -0.01150     -0.01150     -0.01248 *
 * P               6     -0.02079     -0.06739     -0.00361 *
 * P               7     -0.06739     -0.02079     -0.00361 *
 * P               8      0.01058      0.01058     -0.00531 *
 * P               9      0.00897     -0.01588      0.02294 *
 * P              10      0.02186     -0.04809      0.05655 *
 * P              11      0.00640      0.00602      0.00988 *
 * P              12      0.01272      0.01292      0.02118 *
 * P              13      0.04909      0.01556     -0.06457 *
 * P              14      0.05247      0.08240      0.03934 *
 * P              15      0.03344     -0.01888      0.02912 *
 * P              16     -0.02595     -0.04807      0.03100 *
 * P              17     -0.01588      0.00897      0.02294 *
 * P              18      0.00602      0.00639      0.00988 *
 * P              19     -0.04809      0.02186      0.05654 *
 * P              20      0.01293      0.01272      0.02117 *
 * P              21      0.01556      0.04910     -0.06457 *
 * P              22     -0.01888      0.03344      0.02912 *
 * P              23      0.08241      0.05247      0.03935 *
 * P              24     -0.04807     -0.02595      0.03100 *
 * P              25      0.13714      0.13714     -0.07356 *
 * P              26      0.01252      0.03666     -0.00447 *
 * P              27      0.03666      0.01252     -0.00447 *
 * P              28      0.00706      0.00706     -0.02461 *
 * P              29      0.01932      0.01933      0.03858 *
 * P              30      0.00633      0.01244     -0.01228 *
 * P              31      0.01243      0.00632     -0.01228 *
 * P              32      0.00706      0.00706      0.00273 *
 * In              1      0.00231      0.00231      0.01036 *
 * In              2      0.05924     -0.00162     -0.04013 *
 * In              3     -0.00163      0.05924     -0.04013 *
 * In              4     -0.01474     -0.01474     -0.02119 *
 * In              5      0.03063      0.03063      0.03315 *
 * In              6      0.02734     -0.01843      0.02142 *
 * In              7     -0.01843      0.02733      0.02142 *
 * In              8     -0.40036     -0.40036     -0.04547 *
 * In              9      0.01555      0.02247     -0.02470 *
 * In             10     -0.00049      0.04420      0.02239 *
 * In             11      0.00597     -0.01231      0.01731 *
 * In             12     -0.04246      0.00428      0.05866 *
 * In             13     -0.01186      0.00605      0.00350 *
 * In             14      0.10114     -0.09670     -0.08130 *
 * In             15      0.01617     -0.00547     -0.01118 *
 * In             16     -0.01204      0.00650     -0.10345 *
 * In             17      0.02247      0.01555     -0.02470 *
 * In             18     -0.01231      0.00597      0.01730 *
 * In             19      0.04419     -0.00049      0.02239 *
 * In             20      0.00427     -0.04246      0.05866 *
 * In             21      0.00606     -0.01186      0.00350 *
 * In             22     -0.00547      0.01617     -0.01118 *
 * In             23     -0.09670      0.10114     -0.08130 *
 * In             24      0.00650     -0.01204     -0.10345 *
 * In             25      0.01242      0.01241      0.05411 *
 * In             26      0.01484     -0.03112     -0.06254 *
 * In             27     -0.03112      0.01484     -0.06254 *
 * In             28      0.00871      0.00871     -0.00630 *
 * In             29     -0.00843      0.04252      0.03539 *
 * In             30      0.04252     -0.00843      0.03539 *
 * In             31      0.13119      0.13119      0.10561 *
 *                                                          *
 ************************************************************

 Pseudo atomic calculation performed for P 3s2 3p3

 Converged in 23 iterations to a total energy of -208.0292 eV

 Pseudo atomic calculation performed for In 4d10 5s2 5p1

 Converged in 42 iterations to a total energy of -1747.4501 eV
Charge spilling parameter for spin component 1 = 0.17%
Charge spilling parameter for spin component 2 = 0.17%

                   Orbital Populations                  
  ---------------------------------------------------------------
     Ion    Atom   Orbital              Up        Down      Spin
  ---------------------------------------------------------------
      P     1      S                    0.882     0.880     0.001
      P     1      Px                   0.646     0.637     0.008
      P     1      Py                   0.646     0.637     0.009
      P     1      Pz                   0.656     0.652     0.004
      P     2      S                    0.873     0.872     0.001
      P     2      Px                   0.657     0.653     0.003
      P     2      Py                   0.654     0.644     0.010
      P     2      Pz                   0.656     0.646     0.010
      P     3      S                    0.873     0.872     0.001
      P     3      Px                   0.654     0.644     0.010
      P     3      Py                   0.657     0.653     0.003
      P     3      Pz                   0.656     0.646     0.010
      P     4      S                    0.918     0.900     0.018
      P     4      Px                   0.641     0.577     0.064
      P     4      Py                   0.641     0.577     0.064
      P     4      Pz                   0.649     0.585     0.065
      P     5      S                    0.871     0.870     0.000
      P     5      Px                   0.657     0.653     0.003
      P     5      Py                   0.657     0.653     0.003
      P     5      Pz                   0.652     0.649     0.003
      P     6      S                    0.870     0.870    -0.000
      P     6      Px                   0.657     0.660    -0.002
      P     6      Py                   0.649     0.650    -0.001
      P     6      Pz                   0.652     0.653    -0.001
      P     7      S                    0.870     0.870    -0.000
      P     7      Px                   0.649     0.650    -0.001
      P     7      Py                   0.657     0.660    -0.002
      P     7      Pz                   0.652     0.653    -0.001
      P     8      S                    0.870     0.870    -0.000
      P     8      Px                   0.651     0.653    -0.002
      P     8      Py                   0.651     0.653    -0.002
      P     8      Pz                   0.657     0.658    -0.001
      P     9      S                    0.870     0.870    -0.000
      P     9      Px                   0.654     0.655    -0.001
      P     9      Py                   0.654     0.655    -0.001
      P     9      Pz                   0.652     0.653    -0.001
      P    10      S                    0.869     0.869    -0.000
      P    10      Px                   0.656     0.657    -0.002
      P    10      Py                   0.655     0.656    -0.001
      P    10      Pz                   0.653     0.651     0.002
      P    11      S                    0.871     0.871     0.000
      P    11      Px                   0.655     0.653     0.002
      P    11      Py                   0.655     0.653     0.002
      P    11      Pz                   0.652     0.649     0.003
      P    12      S                    0.870     0.870    -0.000
      P    12      Px                   0.653     0.654    -0.001
      P    12      Py                   0.652     0.653    -0.000
      P    12      Pz                   0.656     0.657    -0.001
      P    13      S                    0.873     0.872     0.001
      P    13      Px                   0.656     0.642     0.014
      P    13      Py                   0.658     0.653     0.006
      P    13      Pz                   0.658     0.644     0.013
      P    14      S                    0.910     0.893     0.017
      P    14      Px                   0.667     0.571     0.096
      P    14      Py                   0.672     0.572     0.100
      P    14      Pz                   0.667     0.572     0.095
      P    15      S                    0.874     0.872     0.001
      P    15      Px                   0.657     0.641     0.016
      P    15      Py                   0.656     0.640     0.016
      P    15      Pz                   0.660     0.654     0.005
      P    16      S                    0.874     0.873     0.001
      P    16      Px                   0.660     0.653     0.006
      P    16      Py                   0.657     0.642     0.015
      P    16      Pz                   0.653     0.641     0.012
      P    17      S                    0.870     0.870    -0.000
      P    17      Px                   0.654     0.655    -0.001
      P    17      Py                   0.654     0.655    -0.001
      P    17      Pz                   0.652     0.653    -0.001
      P    18      S                    0.871     0.871     0.000
      P    18      Px                   0.655     0.653     0.002
      P    18      Py                   0.655     0.653     0.002
      P    18      Pz                   0.652     0.649     0.003
      P    19      S                    0.869     0.869    -0.000
      P    19      Px                   0.655     0.656    -0.001
      P    19      Py                   0.656     0.657    -0.002
      P    19      Pz                   0.653     0.651     0.002
      P    20      S                    0.870     0.870    -0.000
      P    20      Px                   0.652     0.653    -0.000
      P    20      Py                   0.653     0.654    -0.001
      P    20      Pz                   0.656     0.657    -0.001
      P    21      S                    0.873     0.872     0.001
      P    21      Px                   0.658     0.653     0.006
      P    21      Py                   0.656     0.642     0.014
      P    21      Pz                   0.658     0.644     0.013
      P    22      S                    0.874     0.872     0.001
      P    22      Px                   0.656     0.640     0.016
      P    22      Py                   0.657     0.641     0.016
      P    22      Pz                   0.660     0.654     0.005
      P    23      S                    0.910     0.893     0.017
      P    23      Px                   0.672     0.572     0.100
      P    23      Py                   0.667     0.571     0.096
      P    23      Pz                   0.667     0.572     0.095
      P    24      S                    0.874     0.873     0.001
      P    24      Px                   0.657     0.642     0.015
      P    24      Py                   0.660     0.653     0.006
      P    24      Pz                   0.653     0.641     0.012
      P    25      S                    0.919     0.900     0.019
      P    25      Px                   0.635     0.570     0.065
      P    25      Py                   0.635     0.570     0.065
      P    25      Pz                   0.660     0.596     0.064
      P    26      S                    0.873     0.872     0.001
      P    26      Px                   0.654     0.645     0.009
      P    26      Py                   0.657     0.654     0.003
      P    26      Pz                   0.655     0.645     0.011
      P    27      S                    0.873     0.872     0.001
      P    27      Px                   0.657     0.654     0.003
      P    27      Py                   0.654     0.645     0.009
      P    27      Pz                   0.655     0.645     0.011
      P    28      S                    0.876     0.875     0.001
      P    28      Px                   0.650     0.641     0.009
      P    28      Py                   0.650     0.641     0.009
      P    28      Pz                   0.659     0.655     0.004
      P    29      S                    0.869     0.870    -0.000
      P    29      Px                   0.654     0.655    -0.002
      P    29      Py                   0.654     0.655    -0.002
      P    29      Pz                   0.653     0.654    -0.001
      P    30      S                    0.870     0.870    -0.000
      P    30      Px                   0.652     0.653    -0.001
      P    30      Py                   0.656     0.658    -0.002
      P    30      Pz                   0.653     0.652     0.000
      P    31      S                    0.870     0.870    -0.000
      P    31      Px                   0.656     0.658    -0.002
      P    31      Py                   0.652     0.653    -0.001
      P    31      Pz                   0.653     0.652     0.000
      P    32      S                    0.871     0.870     0.000
      P    32      Px                   0.655     0.652     0.003
      P    32      Py                   0.655     0.652     0.003
      P    32      Pz                   0.655     0.652     0.003
     In     1      Dzz                  1.000     1.000     0.000
     In     1      Dzy                  0.998     0.998     0.000
     In     1      Dzx                  0.998     0.998     0.000
     In     1      Dxx-yy               1.000     1.000     0.000
     In     1      Dxy                  0.998     0.998     0.000
     In     1      S                    0.703     0.703     0.000
     In     1      Px                   0.239     0.239    -0.000
     In     1      Py                   0.239     0.239    -0.000
     In     1      Pz                   0.241     0.241    -0.000
     In     1      S                   -0.232    -0.233     0.001
     In     2      Dzz                  1.000     1.000     0.000
     In     2      Dzy                  0.998     0.998     0.000
     In     2      Dzx                  0.999     0.999     0.000
     In     2      Dxx-yy               1.000     1.000     0.000
     In     2      Dxy                  0.999     0.999     0.000
     In     2      S                    0.706     0.707    -0.001
     In     2      Px                   0.239     0.239    -0.001
     In     2      Py                   0.241     0.242    -0.000
     In     2      Pz                   0.240     0.241    -0.001
     In     2      S                   -0.263    -0.265     0.001
     In     3      Dzz                  1.000     1.000     0.000
     In     3      Dzy                  0.999     0.999     0.000
     In     3      Dzx                  0.998     0.998     0.000
     In     3      Dxx-yy               1.000     1.000     0.000
     In     3      Dxy                  0.999     0.999     0.000
     In     3      S                    0.706     0.707    -0.001
     In     3      Px                   0.241     0.242    -0.000
     In     3      Py                   0.239     0.239    -0.001
     In     3      Pz                   0.240     0.241    -0.001
     In     3      S                   -0.263    -0.265     0.001
     In     4      Dzz                  1.000     1.000     0.000
     In     4      Dzy                  0.998     0.998     0.000
     In     4      Dzx                  0.998     0.998     0.000
     In     4      Dxx-yy               1.000     1.000     0.000
     In     4      Dxy                  0.999     0.998     0.000
     In     4      S                    0.708     0.709    -0.001
     In     4      Px                   0.240     0.240    -0.001
     In     4      Py                   0.240     0.240    -0.001
     In     4      Pz                   0.239     0.240    -0.000
     In     4      S                   -0.268    -0.269     0.001
     In     5      Dzz                  1.000     1.000     0.000
     In     5      Dzy                  0.999     0.999     0.000
     In     5      Dzx                  0.999     0.999     0.000
     In     5      Dxx-yy               1.000     1.000     0.000
     In     5      Dxy                  0.999     0.999    -0.000
     In     5      S                    0.709     0.708     0.000
     In     5      Px                   0.241     0.239     0.001
     In     5      Py                   0.241     0.239     0.001
     In     5      Pz                   0.238     0.234     0.004
     In     5      S                   -0.244    -0.242    -0.002
     In     6      Dzz                  1.000     1.000     0.000
     In     6      Dzy                  0.999     0.999     0.000
     In     6      Dzx                  0.999     0.998     0.000
     In     6      Dxx-yy               1.000     1.000     0.000
     In     6      Dxy                  0.998     0.998     0.000
     In     6      S                    0.709     0.710    -0.001
     In     6      Px                   0.238     0.239    -0.001
     In     6      Py                   0.238     0.239    -0.000
     In     6      Pz                   0.239     0.240    -0.001
     In     6      S                   -0.264    -0.265     0.002
     In     7      Dzz                  1.000     1.000     0.000
     In     7      Dzy                  0.999     0.998     0.000
     In     7      Dzx                  0.999     0.999     0.000
     In     7      Dxx-yy               1.000     1.000     0.000
     In     7      Dxy                  0.998     0.998     0.000
     In     7      S                    0.709     0.710    -0.001
     In     7      Px                   0.238     0.239    -0.000
     In     7      Py                   0.238     0.239    -0.001
     In     7      Pz                   0.239     0.240    -0.001
     In     7      S                   -0.264    -0.265     0.002
     In     8      Dzz                  1.000     1.000     0.000
     In     8      Dzy                  0.999     0.999     0.000
     In     8      Dzx                  0.999     0.999     0.000
     In     8      Dxx-yy               1.000     1.000    -0.000
     In     8      Dxy                  0.999     0.999     0.000
     In     8      S                    0.709     0.709    -0.000
     In     8      Px                   0.233     0.235    -0.002
     In     8      Py                   0.233     0.235    -0.002
     In     8      Pz                   0.238     0.232     0.007
     In     8      S                   -0.232    -0.232    -0.000
     In     9      Dzz                  1.000     1.000     0.000
     In     9      Dzy                  0.998     0.998     0.000
     In     9      Dzx                  0.999     0.999    -0.000
     In     9      Dxx-yy               1.000     1.000     0.000
     In     9      Dxy                  0.999     0.998     0.000
     In     9      S                    0.710     0.711    -0.001
     In     9      Px                   0.237     0.236     0.001
     In     9      Py                   0.243     0.241     0.002
     In     9      Pz                   0.239     0.238     0.001
     In     9      S                   -0.252    -0.249    -0.003
     In    10      Dzz                  1.000     1.000     0.000
     In    10      Dzy                  0.999     0.999     0.000
     In    10      Dzx                  0.998     0.998     0.000
     In    10      Dxx-yy               1.000     1.000     0.000
     In    10      Dxy                  0.999     0.998     0.000
     In    10      S                    0.702     0.704    -0.002
     In    10      Px                   0.242     0.242     0.000
     In    10      Py                   0.246     0.244     0.002
     In    10      Pz                   0.238     0.238     0.000
     In    10      S                   -0.232    -0.229    -0.003
     In    11      Dzz                  1.000     1.000     0.000
     In    11      Dzy                  0.999     0.999     0.000
     In    11      Dzx                  0.998     0.998     0.000
     In    11      Dxx-yy               1.000     1.000     0.000
     In    11      Dxy                  0.998     0.998     0.000
     In    11      S                    0.707     0.707    -0.001
     In    11      Px                   0.241     0.241    -0.000
     In    11      Py                   0.240     0.240    -0.001
     In    11      Pz                   0.239     0.239    -0.001
     In    11      S                   -0.266    -0.267     0.001
     In    12      Dzz                  1.000     1.000     0.000
     In    12      Dzy                  0.998     0.998     0.000
     In    12      Dzx                  0.998     0.998     0.000
     In    12      Dxx-yy               1.000     1.000     0.000
     In    12      Dxy                  0.998     0.998     0.000
     In    12      S                    0.707     0.708    -0.001
     In    12      Px                   0.241     0.241    -0.001
     In    12      Py                   0.240     0.240    -0.001
     In    12      Pz                   0.238     0.238    -0.000
     In    12      S                   -0.266    -0.268     0.002
     In    13      Dzz                  1.000     1.000    -0.000
     In    13      Dzy                  0.999     0.999    -0.000
     In    13      Dzx                  0.998     0.998    -0.000
     In    13      Dxx-yy               1.000     1.000    -0.000
     In    13      Dxy                  0.998     0.998    -0.000
     In    13      S                    0.710     0.709     0.001
     In    13      Px                   0.240     0.240     0.000
     In    13      Py                   0.239     0.239     0.000
     In    13      Pz                   0.240     0.240     0.000
     In    13      S                   -0.273    -0.270    -0.003
     In    14      Dzz                  1.000     1.000     0.000
     In    14      Dzy                  0.998     0.998     0.000
     In    14      Dzx                  0.998     0.998     0.000
     In    14      Dxx-yy               1.000     1.000     0.000
     In    14      Dxy                  0.999     0.998     0.000
     In    14      S                    0.703     0.707    -0.004
     In    14      Px                   0.240     0.241    -0.001
     In    14      Py                   0.248     0.249    -0.001
     In    14      Pz                   0.239     0.240    -0.001
     In    14      S                   -0.237    -0.236    -0.001
     In    15      Dzz                  1.000     1.000     0.000
     In    15      Dzy                  0.998     0.998     0.000
     In    15      Dzx                  0.998     0.998     0.000
     In    15      Dxx-yy               1.000     1.000     0.000
     In    15      Dxy                  0.999     0.999     0.000
     In    15      S                    0.709     0.710    -0.001
     In    15      Px                   0.237     0.238    -0.000
     In    15      Py                   0.238     0.239    -0.001
     In    15      Pz                   0.241     0.242    -0.001
     In    15      S                   -0.266    -0.267     0.002
     In    16      Dzz                  1.000     1.000     0.000
     In    16      Dzy                  0.998     0.998     0.000
     In    16      Dzx                  0.999     0.998     0.000
     In    16      Dxx-yy               1.000     1.000     0.000
     In    16      Dxy                  0.998     0.998     0.000
     In    16      S                    0.705     0.709    -0.004
     In    16      Px                   0.237     0.238    -0.001
     In    16      Py                   0.238     0.240    -0.002
     In    16      Pz                   0.247     0.248    -0.001
     In    16      S                   -0.241    -0.240    -0.001
     In    17      Dzz                  1.000     1.000     0.000
     In    17      Dzy                  0.999     0.999    -0.000
     In    17      Dzx                  0.998     0.998     0.000
     In    17      Dxx-yy               1.000     1.000     0.000
     In    17      Dxy                  0.999     0.998     0.000
     In    17      S                    0.710     0.711    -0.001
     In    17      Px                   0.243     0.241     0.002
     In    17      Py                   0.237     0.236     0.001
     In    17      Pz                   0.239     0.238     0.001
     In    17      S                   -0.252    -0.249    -0.003
     In    18      Dzz                  1.000     1.000     0.000
     In    18      Dzy                  0.998     0.998     0.000
     In    18      Dzx                  0.999     0.999     0.000
     In    18      Dxx-yy               1.000     1.000     0.000
     In    18      Dxy                  0.998     0.998     0.000
     In    18      S                    0.707     0.707    -0.001
     In    18      Px                   0.240     0.240    -0.001
     In    18      Py                   0.241     0.241    -0.000
     In    18      Pz                   0.239     0.239    -0.001
     In    18      S                   -0.266    -0.267     0.001
     In    19      Dzz                  1.000     1.000     0.000
     In    19      Dzy                  0.998     0.998     0.000
     In    19      Dzx                  0.999     0.999     0.000
     In    19      Dxx-yy               1.000     1.000     0.000
     In    19      Dxy                  0.999     0.998     0.000
     In    19      S                    0.702     0.704    -0.002
     In    19      Px                   0.246     0.244     0.002
     In    19      Py                   0.242     0.242     0.000
     In    19      Pz                   0.238     0.238     0.000
     In    19      S                   -0.232    -0.229    -0.003
     In    20      Dzz                  1.000     1.000     0.000
     In    20      Dzy                  0.998     0.998     0.000
     In    20      Dzx                  0.998     0.998     0.000
     In    20      Dxx-yy               1.000     1.000     0.000
     In    20      Dxy                  0.998     0.998     0.000
     In    20      S                    0.707     0.708    -0.001
     In    20      Px                   0.240     0.240    -0.001
     In    20      Py                   0.241     0.241    -0.001
     In    20      Pz                   0.238     0.238    -0.000
     In    20      S                   -0.266    -0.268     0.002
     In    21      Dzz                  1.000     1.000    -0.000
     In    21      Dzy                  0.998     0.998    -0.000
     In    21      Dzx                  0.999     0.999    -0.000
     In    21      Dxx-yy               1.000     1.000    -0.000
     In    21      Dxy                  0.998     0.998    -0.000
     In    21      S                    0.710     0.709     0.001
     In    21      Px                   0.239     0.239     0.000
     In    21      Py                   0.240     0.240     0.000
     In    21      Pz                   0.240     0.240     0.000
     In    21      S                   -0.273    -0.270    -0.003
     In    22      Dzz                  1.000     1.000     0.000
     In    22      Dzy                  0.998     0.998     0.000
     In    22      Dzx                  0.998     0.998     0.000
     In    22      Dxx-yy               1.000     1.000     0.000
     In    22      Dxy                  0.999     0.999     0.000
     In    22      S                    0.709     0.710    -0.001
     In    22      Px                   0.238     0.239    -0.001
     In    22      Py                   0.237     0.238    -0.000
     In    22      Pz                   0.241     0.242    -0.001
     In    22      S                   -0.266    -0.267     0.002
     In    23      Dzz                  1.000     1.000     0.000
     In    23      Dzy                  0.998     0.998     0.000
     In    23      Dzx                  0.998     0.998     0.000
     In    23      Dxx-yy               1.000     1.000     0.000
     In    23      Dxy                  0.999     0.998     0.000
     In    23      S                    0.703     0.707    -0.004
     In    23      Px                   0.248     0.249    -0.001
     In    23      Py                   0.240     0.241    -0.001
     In    23      Pz                   0.239     0.240    -0.001
     In    23      S                   -0.237    -0.236    -0.001
     In    24      Dzz                  1.000     1.000     0.000
     In    24      Dzy                  0.999     0.998     0.000
     In    24      Dzx                  0.998     0.998     0.000
     In    24      Dxx-yy               1.000     1.000     0.000
     In    24      Dxy                  0.998     0.998     0.000
     In    24      S                    0.705     0.709    -0.004
     In    24      Px                   0.238     0.240    -0.002
     In    24      Py                   0.237     0.238    -0.001
     In    24      Pz                   0.247     0.248    -0.001
     In    24      S                   -0.241    -0.240    -0.001
     In    25      Dzz                  1.000     1.000     0.000
     In    25      Dzy                  0.998     0.998    -0.000
     In    25      Dzx                  0.998     0.998    -0.000
     In    25      Dxx-yy               1.000     1.000     0.000
     In    25      Dxy                  0.998     0.998    -0.000
     In    25      S                    0.709     0.709     0.000
     In    25      Px                   0.243     0.243     0.000
     In    25      Py                   0.243     0.243     0.000
     In    25      Pz                   0.235     0.235     0.000
     In    25      S                   -0.275    -0.275    -0.001
     In    26      Dzz                  1.000     1.000     0.000
     In    26      Dzy                  0.999     0.998     0.000
     In    26      Dzx                  0.998     0.998     0.000
     In    26      Dxx-yy               1.000     1.000     0.000
     In    26      Dxy                  0.999     0.998     0.000
     In    26      S                    0.702     0.705    -0.003
     In    26      Px                   0.239     0.239    -0.000
     In    26      Py                   0.244     0.244     0.001
     In    26      Pz                   0.240     0.240    -0.000
     In    26      S                   -0.234    -0.232    -0.002
     In    27      Dzz                  1.000     1.000     0.000
     In    27      Dzy                  0.998     0.998     0.000
     In    27      Dzx                  0.999     0.998     0.000
     In    27      Dxx-yy               1.000     1.000     0.000
     In    27      Dxy                  0.999     0.998     0.000
     In    27      S                    0.702     0.705    -0.003
     In    27      Px                   0.244     0.244     0.001
     In    27      Py                   0.239     0.239    -0.000
     In    27      Pz                   0.240     0.240    -0.000
     In    27      S                   -0.234    -0.232    -0.002
     In    28      Dzz                  1.000     1.000     0.000
     In    28      Dzy                  0.998     0.998     0.000
     In    28      Dzx                  0.998     0.998     0.000
     In    28      Dxx-yy               1.000     1.000     0.000
     In    28      Dxy                  0.999     0.999     0.000
     In    28      S                    0.708     0.709    -0.001
     In    28      Px                   0.239     0.240    -0.001
     In    28      Py                   0.239     0.240    -0.001
     In    28      Pz                   0.240     0.241    -0.000
     In    28      S                   -0.264    -0.266     0.002
     In    29      Dzz                  1.000     1.000     0.000
     In    29      Dzy                  0.999     0.998     0.000
     In    29      Dzx                  0.998     0.998     0.000
     In    29      Dxx-yy               1.000     1.000     0.000
     In    29      Dxy                  0.998     0.998     0.000
     In    29      S                    0.704     0.709    -0.005
     In    29      Px                   0.239     0.242    -0.002
     In    29      Py                   0.246     0.249    -0.002
     In    29      Pz                   0.236     0.238    -0.002
     In    29      S                   -0.240    -0.240    -0.000
     In    30      Dzz                  1.000     1.000     0.000
     In    30      Dzy                  0.998     0.998     0.000
     In    30      Dzx                  0.999     0.998     0.000
     In    30      Dxx-yy               1.000     1.000     0.000
     In    30      Dxy                  0.998     0.998     0.000
     In    30      S                    0.704     0.709    -0.005
     In    30      Px                   0.246     0.249    -0.002
     In    30      Py                   0.239     0.242    -0.002
     In    30      Pz                   0.236     0.238    -0.002
     In    30      S                   -0.240    -0.240    -0.000
     In    31      Dzz                  1.000     1.000     0.000
     In    31      Dzy                  0.999     0.999     0.000
     In    31      Dzx                  0.999     0.999     0.000
     In    31      Dxx-yy               1.000     1.000    -0.000
     In    31      Dxy                  0.999     0.999     0.000
     In    31      S                    0.708     0.707     0.001
     In    31      Px                   0.238     0.238     0.001
     In    31      Py                   0.238     0.238     0.001
     In    31      Pz                   0.244     0.235     0.009
     In    31      S                   -0.230    -0.228    -0.001
  ---------------------------------------------------------------
                           Total:     282.165   280.835     1.330
  ---------------------------------------------------------------

     Atomic Populations (Mulliken)
     -----------------------------
Species          Ion Spin      s       p       d       f      Total   Charge(e)   Spin(hbar/2)
==============================================================================================
  P               1   up:     0.882   1.947   0.000   0.000   2.829    -0.635        0.023
                  1   dn:     0.880   1.926   0.000   0.000   2.806
  P               2   up:     0.873   1.966   0.000   0.000   2.839    -0.655        0.024
                  2   dn:     0.872   1.943   0.000   0.000   2.815
  P               3   up:     0.873   1.966   0.000   0.000   2.839    -0.655        0.024
                  3   dn:     0.872   1.943   0.000   0.000   2.815
  P               4   up:     0.918   1.931   0.000   0.000   2.848    -0.486        0.211
                  4   dn:     0.900   1.738   0.000   0.000   2.638
  P               5   up:     0.871   1.966   0.000   0.000   2.836    -0.663        0.010
                  5   dn:     0.870   1.956   0.000   0.000   2.826
  P               6   up:     0.870   1.959   0.000   0.000   2.829    -0.662       -0.004
                  6   dn:     0.870   1.962   0.000   0.000   2.833
  P               7   up:     0.870   1.959   0.000   0.000   2.829    -0.662       -0.004
                  7   dn:     0.870   1.962   0.000   0.000   2.833
  P               8   up:     0.870   1.960   0.000   0.000   2.829    -0.663       -0.004
                  8   dn:     0.870   1.964   0.000   0.000   2.834
  P               9   up:     0.870   1.961   0.000   0.000   2.831    -0.664       -0.003
                  9   dn:     0.870   1.963   0.000   0.000   2.833
  P              10   up:     0.869   1.963   0.000   0.000   2.832    -0.665       -0.001
                 10   dn:     0.869   1.964   0.000   0.000   2.833
  P              11   up:     0.871   1.963   0.000   0.000   2.834    -0.660        0.008
                 11   dn:     0.871   1.955   0.000   0.000   2.826
  P              12   up:     0.870   1.961   0.000   0.000   2.831    -0.664       -0.003
                 12   dn:     0.870   1.964   0.000   0.000   2.834
  P              13   up:     0.873   1.972   0.000   0.000   2.845    -0.656        0.034
                 13   dn:     0.872   1.939   0.000   0.000   2.811
  P              14   up:     0.910   2.007   0.000   0.000   2.917    -0.525        0.309
                 14   dn:     0.893   1.715   0.000   0.000   2.608
  P              15   up:     0.874   1.972   0.000   0.000   2.846    -0.654        0.038
                 15   dn:     0.872   1.935   0.000   0.000   2.808
  P              16   up:     0.874   1.970   0.000   0.000   2.844    -0.653        0.034
                 16   dn:     0.873   1.937   0.000   0.000   2.809
  P              17   up:     0.870   1.961   0.000   0.000   2.831    -0.664       -0.003
                 17   dn:     0.870   1.963   0.000   0.000   2.833
  P              18   up:     0.871   1.963   0.000   0.000   2.834    -0.660        0.008
                 18   dn:     0.871   1.955   0.000   0.000   2.826
  P              19   up:     0.869   1.963   0.000   0.000   2.832    -0.665       -0.001
                 19   dn:     0.869   1.964   0.000   0.000   2.833
  P              20   up:     0.870   1.961   0.000   0.000   2.831    -0.664       -0.003
                 20   dn:     0.870   1.964   0.000   0.000   2.834
  P              21   up:     0.873   1.972   0.000   0.000   2.845    -0.656        0.034
                 21   dn:     0.872   1.939   0.000   0.000   2.811
  P              22   up:     0.874   1.972   0.000   0.000   2.846    -0.654        0.038
                 22   dn:     0.872   1.935   0.000   0.000   2.808
  P              23   up:     0.910   2.007   0.000   0.000   2.917    -0.525        0.309
                 23   dn:     0.893   1.715   0.000   0.000   2.608
  P              24   up:     0.874   1.970   0.000   0.000   2.844    -0.653        0.034
                 24   dn:     0.873   1.937   0.000   0.000   2.809
  P              25   up:     0.919   1.931   0.000   0.000   2.850    -0.486        0.214
                 25   dn:     0.900   1.736   0.000   0.000   2.636
  P              26   up:     0.873   1.966   0.000   0.000   2.839    -0.654        0.024
                 26   dn:     0.872   1.943   0.000   0.000   2.815
  P              27   up:     0.873   1.966   0.000   0.000   2.839    -0.654        0.024
                 27   dn:     0.872   1.943   0.000   0.000   2.815
  P              28   up:     0.876   1.959   0.000   0.000   2.836    -0.647        0.024
                 28   dn:     0.875   1.937   0.000   0.000   2.812
  P              29   up:     0.869   1.960   0.000   0.000   2.830    -0.664       -0.005
                 29   dn:     0.870   1.965   0.000   0.000   2.834
  P              30   up:     0.870   1.960   0.000   0.000   2.831    -0.664       -0.003
                 30   dn:     0.870   1.963   0.000   0.000   2.833
  P              31   up:     0.870   1.960   0.000   0.000   2.831    -0.664       -0.003
                 31   dn:     0.870   1.963   0.000   0.000   2.833
  P              32   up:     0.871   1.966   0.000   0.000   2.836    -0.663        0.009
                 32   dn:     0.870   1.957   0.000   0.000   2.827
  In              1   up:     0.471   0.719   4.995   0.000   6.185     0.631        0.000
                  1   dn:     0.470   0.720   4.995   0.000   6.185
  In              2   up:     0.443   0.720   4.995   0.000   6.157     0.685       -0.001
                  2   dn:     0.442   0.721   4.995   0.000   6.158
  In              3   up:     0.443   0.720   4.995   0.000   6.157     0.685       -0.001
                  3   dn:     0.442   0.721   4.995   0.000   6.158
  In              4   up:     0.440   0.719   4.995   0.000   6.153     0.692       -0.001
                  4   dn:     0.439   0.721   4.995   0.000   6.155
  In              5   up:     0.464   0.719   4.995   0.000   6.178     0.648        0.005
                  5   dn:     0.466   0.713   4.995   0.000   6.174
  In              6   up:     0.445   0.715   4.995   0.000   6.155     0.688       -0.001
                  6   dn:     0.444   0.717   4.995   0.000   6.156
  In              7   up:     0.445   0.715   4.995   0.000   6.155     0.688       -0.001
                  7   dn:     0.444   0.717   4.995   0.000   6.157
  In              8   up:     0.477   0.703   4.995   0.000   6.176     0.651        0.003
                  8   dn:     0.477   0.701   4.995   0.000   6.173
  In              9   up:     0.458   0.718   4.995   0.000   6.171     0.658        0.000
                  9   dn:     0.462   0.715   4.995   0.000   6.171
  In             10   up:     0.470   0.726   4.995   0.000   6.191     0.615       -0.003
                 10   dn:     0.475   0.724   4.994   0.000   6.194
  In             11   up:     0.441   0.719   4.995   0.000   6.155     0.690       -0.001
                 11   dn:     0.440   0.721   4.995   0.000   6.156
  In             12   up:     0.441   0.719   4.995   0.000   6.154     0.691       -0.001
                 12   dn:     0.440   0.720   4.994   0.000   6.155
  In             13   up:     0.436   0.719   4.995   0.000   6.150     0.698       -0.002
                 13   dn:     0.439   0.719   4.995   0.000   6.152
  In             14   up:     0.466   0.726   4.995   0.000   6.187     0.619       -0.008
                 14   dn:     0.471   0.730   4.994   0.000   6.195
  In             15   up:     0.443   0.716   4.995   0.000   6.154     0.691       -0.001
                 15   dn:     0.442   0.718   4.995   0.000   6.155
  In             16   up:     0.465   0.723   4.995   0.000   6.182     0.628       -0.008
                 16   dn:     0.469   0.727   4.994   0.000   6.190
  In             17   up:     0.458   0.718   4.995   0.000   6.171     0.658        0.000
                 17   dn:     0.462   0.715   4.995   0.000   6.171
  In             18   up:     0.441   0.719   4.995   0.000   6.155     0.690       -0.001
                 18   dn:     0.440   0.721   4.995   0.000   6.156
  In             19   up:     0.470   0.726   4.995   0.000   6.191     0.615       -0.003
                 19   dn:     0.475   0.724   4.994   0.000   6.194
  In             20   up:     0.441   0.719   4.995   0.000   6.154     0.691       -0.001
                 20   dn:     0.440   0.720   4.995   0.000   6.155
  In             21   up:     0.436   0.719   4.995   0.000   6.150     0.698       -0.002
                 21   dn:     0.439   0.719   4.995   0.000   6.152
  In             22   up:     0.443   0.716   4.995   0.000   6.154     0.691       -0.001
                 22   dn:     0.442   0.718   4.995   0.000   6.155
  In             23   up:     0.466   0.726   4.995   0.000   6.187     0.619       -0.008
                 23   dn:     0.471   0.730   4.994   0.000   6.195
  In             24   up:     0.465   0.723   4.995   0.000   6.182     0.628       -0.008
                 24   dn:     0.469   0.727   4.994   0.000   6.190
  In             25   up:     0.434   0.721   4.995   0.000   6.149     0.702       -0.000
                 25   dn:     0.434   0.720   4.995   0.000   6.149
  In             26   up:     0.468   0.723   4.995   0.000   6.186     0.624       -0.005
                 26   dn:     0.473   0.723   4.994   0.000   6.191
  In             27   up:     0.468   0.723   4.995   0.000   6.186     0.624       -0.005
                 27   dn:     0.473   0.723   4.994   0.000   6.191
  In             28   up:     0.444   0.718   4.995   0.000   6.157     0.685       -0.001
                 28   dn:     0.443   0.720   4.995   0.000   6.158
  In             29   up:     0.464   0.722   4.995   0.000   6.180     0.628       -0.011
                 29   dn:     0.469   0.729   4.994   0.000   6.192
  In             30   up:     0.464   0.722   4.995   0.000   6.180     0.628       -0.011
                 30   dn:     0.469   0.729   4.994   0.000   6.192
  In             31   up:     0.478   0.721   4.995   0.000   6.194     0.622        0.010
                 31   dn:     0.479   0.710   4.995   0.000   6.184
==============================================================================================

                 Bond                   Population        Spin       Length (A)
================================================================================
              P 23 -- In 24                  0.76        -0.00          2.53351
              P 14 -- In 16                  0.76        -0.00          2.53351
              P 23 -- In 29                  0.76        -0.00          2.53446
              P 14 -- In 30                  0.76        -0.00          2.53446
              P 23 -- In 23                  0.74        -0.00          2.54197
              P 14 -- In 14                  0.74        -0.00          2.54197
              P 8  -- In 4                   0.67         0.00          2.54762
              P 10 -- In 12                  0.68         0.00          2.54867
              P 19 -- In 20                  0.68         0.00          2.54867
              P 8  -- In 25                  0.65        -0.00          2.55043
              P 29 -- In 28                  0.67         0.00          2.55245
              P 4  -- In 8                   0.75         0.00          2.55274
              P 1  -- In 3                   0.68        -0.00          2.55338
              P 1  -- In 2                   0.68        -0.00          2.55338
              P 25 -- In 27                  0.73        -0.00          2.55476
              P 25 -- In 26                  0.73        -0.00          2.55476
              P 24 -- In 20                  0.66        -0.00          2.55486
              P 16 -- In 12                  0.66        -0.00          2.55486
              P 18 -- In 1                   0.64        -0.00          2.55505
              P 11 -- In 1                   0.64        -0.00          2.55505
              P 29 -- In 25                  0.65        -0.00          2.55507
              P 32 -- In 22                  0.65         0.00          2.55634
              P 32 -- In 15                  0.65         0.00          2.55634
              P 17 -- In 18                  0.67         0.00          2.55790
              P 9  -- In 11                  0.67         0.00          2.55790
              P 5  -- In 7                   0.65         0.00          2.55828
              P 5  -- In 6                   0.65         0.00          2.55828
              P 3  -- In 4                   0.65        -0.00          2.55948
              P 2  -- In 4                   0.65        -0.00          2.55948
              P 13 -- In 12                  0.65        -0.00          2.55971
              P 21 -- In 20                  0.65        -0.00          2.55971
              P 28 -- In 18                  0.66        -0.00          2.55991
              P 28 -- In 11                  0.66        -0.00          2.55991
              P 13 -- In 14                  0.64         0.00          2.56084
              P 21 -- In 23                  0.64         0.00          2.56084
              P 17 -- In 21                  0.66        -0.00          2.56088
              P 9  -- In 13                  0.66        -0.00          2.56088
              P 31 -- In 22                  0.67         0.00          2.56138
              P 30 -- In 15                  0.67         0.00          2.56138
              P 19 -- In 19                  0.64        -0.00          2.56152
              P 10 -- In 10                  0.64        -0.00          2.56152
              P 6  -- In 23                  0.63         0.00          2.56155
              P 7  -- In 14                  0.63         0.00          2.56155
              P 12 -- In 2                   0.66         0.00          2.56178
              P 20 -- In 3                   0.66         0.00          2.56178
              P 12 -- In 21                  0.65        -0.00          2.56183
              P 20 -- In 13                  0.65        -0.00          2.56183
              P 4  -- In 19                  0.71         0.00          2.56197
              P 4  -- In 10                  0.71         0.00          2.56197
              P 27 -- In 28                  0.65        -0.00          2.56221
              P 26 -- In 28                  0.65        -0.00          2.56221
              P 32 -- In 1                   0.64        -0.00          2.56241
              P 26 -- In 11                  0.65        -0.00          2.56259
              P 27 -- In 18                  0.65        -0.00          2.56259
              P 30 -- In 29                  0.64         0.00          2.56264
              P 31 -- In 30                  0.64         0.00          2.56264
              P 27 -- In 17                  0.63         0.00          2.56265
              P 26 -- In 9                   0.63         0.00          2.56265
              P 5  -- In 1                   0.64        -0.00          2.56276
              P 22 -- In 7                   0.66        -0.00          2.56309
              P 15 -- In 6                   0.66        -0.00          2.56309
              P 6  -- In 21                  0.65        -0.00          2.56394
              P 7  -- In 13                  0.65        -0.00          2.56394
              P 30 -- In 13                  0.64        -0.00          2.56455
              P 31 -- In 21                  0.64        -0.00          2.56455
              P 10 -- In 25                  0.66        -0.00          2.56488
              P 19 -- In 25                  0.66        -0.00          2.56488
              P 3  -- In 9                   0.63         0.00          2.56510
              P 2  -- In 17                  0.63         0.00          2.56510
              P 15 -- In 15                  0.66        -0.00          2.56559
              P 22 -- In 22                  0.66        -0.00          2.56559
              P 21 -- In 22                  0.64        -0.00          2.56587
              P 13 -- In 15                  0.64        -0.00          2.56587
              P 7  -- In 7                   0.67         0.00          2.56604
              P 6  -- In 6                   0.67         0.00          2.56604
              P 24 -- In 9                   0.63         0.00          2.56618
              P 16 -- In 17                  0.63         0.00          2.56618
              P 22 -- In 5                   0.61         0.00          2.56622
              P 15 -- In 5                   0.61         0.00          2.56622
              P 11 -- In 11                  0.65         0.00          2.56696
              P 18 -- In 18                  0.65         0.00          2.56697
              P 19 -- In 26                  0.63        -0.00          2.56778
              P 10 -- In 27                  0.63        -0.00          2.56778
              P 32 -- In 28                  0.64        -0.00          2.56834
              P 18 -- In 20                  0.64         0.00          2.56858
              P 11 -- In 12                  0.64         0.00          2.56858
              P 21 -- In 17                  0.61         0.00          2.56931
              P 13 -- In 9                   0.61         0.00          2.56931
              P 5  -- In 4                   0.64        -0.00          2.56990
              P 20 -- In 24                  0.64         0.00          2.57013
              P 12 -- In 16                  0.64         0.00          2.57013
              P 20 -- In 26                  0.64        -0.00          2.57025
              P 12 -- In 27                  0.64        -0.00          2.57025
              P 9  -- In 10                  0.64        -0.00          2.57141
              P 17 -- In 19                  0.64        -0.00          2.57141
              P 16 -- In 6                   0.64        -0.00          2.57155
              P 24 -- In 7                   0.64        -0.00          2.57155
              P 3  -- In 3                   0.64        -0.00          2.57203
              P 2  -- In 2                   0.64        -0.00          2.57204
              P 29 -- In 29                  0.64         0.00          2.57279
              P 29 -- In 30                  0.64         0.00          2.57279
              P 7  -- In 8                   0.64         0.00          2.57299
              P 6  -- In 8                   0.64         0.00          2.57299
              P 11 -- In 2                   0.64         0.00          2.57391
              P 18 -- In 3                   0.64        -0.00          2.57391
              P 17 -- In 24                  0.63         0.00          2.57450
              P 9  -- In 16                  0.63         0.00          2.57450
              P 25 -- In 31                  0.70         0.00          2.57625
              P 31 -- In 31                  0.64        -0.00          2.57654
              P 30 -- In 31                  0.64        -0.00          2.57654
              P 2  -- In 19                  0.63        -0.00          2.57828
              P 3  -- In 10                  0.63        -0.00          2.57828
              P 8  -- In 23                  0.64         0.00          2.57981
              P 8  -- In 14                  0.64         0.00          2.57981
              P 15 -- In 16                  0.61        -0.00          2.58070
              P 22 -- In 24                  0.61        -0.00          2.58070
              P 28 -- In 5                   0.62        -0.00          2.58771
              P 27 -- In 27                  0.61        -0.00          2.58780
              P 26 -- In 26                  0.61        -0.00          2.58780
              P 16 -- In 30                  0.61         0.00          2.58797
              P 24 -- In 29                  0.61         0.00          2.58797
              P 1  -- In 5                   0.63        -0.00          2.59323
              P 28 -- In 31                  0.57        -0.00          2.63324
              P 1  -- In 8                   0.46        -0.00          2.75671
================================================================================

 Hirshfeld supercell size:           2           2           2
Standard grid dimensions: 240 240 240
Fine grid dimensions:     240 240 240


     Hirshfeld Analysis
     ------------------
Species   Ion     Hirshfeld Charge (e)  Spin (hbar/2)
===================================================
  P        1                -0.23        0.02
  P        2                -0.23        0.02
  P        3                -0.23        0.02
  P        4                -0.17        0.17
  P        5                -0.23        0.01
  P        6                -0.24       -0.00
  P        7                -0.24       -0.00
  P        8                -0.24       -0.00
  P        9                -0.24       -0.00
  P       10                -0.24       -0.00
  P       11                -0.23        0.01
  P       12                -0.24       -0.00
  P       13                -0.23        0.03
  P       14                -0.19        0.25
  P       15                -0.23        0.03
  P       16                -0.23        0.03
  P       17                -0.24       -0.00
  P       18                -0.23        0.01
  P       19                -0.24       -0.00
  P       20                -0.24       -0.00
  P       21                -0.23        0.03
  P       22                -0.23        0.03
  P       23                -0.19        0.25
  P       24                -0.23        0.03
  P       25                -0.18        0.18
  P       26                -0.23        0.02
  P       27                -0.23        0.02
  P       28                -0.23        0.02
  P       29                -0.24       -0.00
  P       30                -0.24       -0.00
  P       31                -0.24       -0.00
  P       32                -0.23        0.01
  In       1                 0.24        0.00
  In       2                 0.23        0.00
  In       3                 0.23        0.00
  In       4                 0.24        0.00
  In       5                 0.24        0.01
  In       6                 0.24        0.00
  In       7                 0.24        0.00
  In       8                 0.25        0.02
  In       9                 0.24        0.01
  In      10                 0.23        0.01
  In      11                 0.23        0.00
  In      12                 0.24        0.00
  In      13                 0.23        0.00
  In      14                 0.22        0.01
  In      15                 0.24        0.00
  In      16                 0.23        0.02
  In      17                 0.24        0.01
  In      18                 0.23        0.00
  In      19                 0.23        0.01
  In      20                 0.24        0.00
  In      21                 0.23        0.00
  In      22                 0.24        0.00
  In      23                 0.22        0.01
  In      24                 0.23        0.02
  In      25                 0.23       -0.00
  In      26                 0.23        0.01
  In      27                 0.23        0.01
  In      28                 0.24        0.00
  In      29                 0.23        0.01
  In      30                 0.23        0.01
  In      31                 0.24        0.02
===================================================

 
 A BibTeX formatted list of references used in this run has been written to 
 In_Vacancy_Migration_15->60_Singlepoints_1.bib
 
Initialisation time =     29.58 s
Calculation time    =   8403.71 s
Finalisation time   =    154.15 s
Total time          =   8587.44 s
Peak Memory Use     = 9502240 kB
 
Overall parallel efficiency rating: Terrible (34%)
 
Data was distributed by:-
G-vector (3-way); efficiency rating: Poor (37%)
k-point (36-way); efficiency rating: Very good (84%)
