 +-------------------------------------------------+
 |                                                 |
 |      CCC   AA    SSS  TTTTT  EEEEE  PPPP        |
 |     C     A  A  S       T    E      P   P       |
 |     C     AAAA   SS     T    EEE    PPPP        |
 |     C     A  A     S    T    E      P           |
 |      CCC  A  A  SSS     T    EEEEE  P           |
 |                                                 |
 +-------------------------------------------------+
 |                                                 |
 | Welcome to Academic Release CASTEP version 24.1 |
 | Ab Initio Total Energy Program                  |
 |                                                 |
 | Authors:                                        |
 | M. Segall, M. Probert, C. Pickard, P. Hasnip,   |
 | S. Clark, K. Refson, J. R. Yates,               |
 | A. Bartok-Partay, M. Payne                      |
 |                                                 |
 | Contributors:                                   |
 | P. Lindan, P. Haynes, J. White, V. Milman,      |
 | N. Govind, M. Gibson, P. Tulip, V. Cocula,      |
 | B. Montanari, D. Quigley, M. Glover,            |
 | L. Bernasconi, A. Perlov, M. Plummer,           |
 | E. McNellis, J. Meyer, J. Gale, D. Jochym       |
 | J. Aarons, B. Walker, R. Gillen, D. Jones       |
 | T. Green, I. J. Bush, C. J. Armstrong,          |
 | E. J. Higgins, E. L. Brown, M. S. McFly,        |
 | J. Wilkins, B-C. Shih, P. J. P. Byrne,          |
 | R. J. Maurer, J. C. Womack, J. Dziedzic,        |
 | L. LeBlanc, T. K. Stenczel, J. Kermode,         |
 | S. Sturniolo, B. Shi, B. Durham, M. Evans,      |
 | M. J. Smith, A. Tamerus, Z. Hawkhead,           |
 | V. Ravindran, T. Hollins, S. A. Joyce,          |
 | R. T. Strong, A. M. Reilly, S. J. Donaldson     |
 |                                                 |
 | Copyright (c) 2000 - 2023                       |
 |                                                 |
 |     Distributed under license from Cambridge    |
 |     Enterprise for academic use only.           |
 |                                                 |
 | Please cite                                     |
 |                                                 |
 |     "First principles methods using CASTEP"     |
 |                                                 |
 |         Zeitschrift fuer Kristallographie       |
 |           220(5-6) pp. 567-570 (2005)           |
 |                                                 |
 | S. J. Clark, M. D. Segall, C. J. Pickard,       |
 | P. J. Hasnip, M. J. Probert, K. Refson,         |
 | M. C. Payne                                     |
 |                                                 |
 |       in all publications arising from          |
 |              your use of CASTEP                 |
 |                                                 |
 +-------------------------------------------------+
 |                                                 |
 |              http://www.castep.org              |
 |                                                 |
 +-------------------------------------------------+



 Compiled for  GNU 11.2.0 on 04-04-2024 18:39:17
 from code version 6355fd106 Castep241_branch Thu Mar 7 17:56:19 2024 +0000
 Compiler: GNU Fortran 11.2.0; Optimisation: FAST
 Comms   : MPI VERSION : CRAY MPICH version 8.1.23.14 (ANL base 3.4a2)
 MATHLIBS: default (LAPACK version 3.10.1)
 FFT Lib : fftw3 version commercial-fftw-3.3.10-sse2-avx-avx2-avx2_128
 Fundamental constants values: CODATA 2018

 Run started: Sun, 27 Apr 2025 02:56:44 +0100

 Atomic calculation performed for P: 1s2 2s2 2p6 3s2 3p3

 Converged in 47 iterations to an ae energy of -9309.074 eV

   ============================================================                
   | Pseudopotential Report - Date of generation 27-04-2025   |                
   ------------------------------------------------------------                
   | Element: P Ionic charge:  5.00 Level of theory: RSCAN    |                
   | Atomic Solver: Koelling-Harmon                           |                
   |                                                          |                
   |               Reference Electronic Structure             |                
   |         Orbital         Occupation         Energy        |                
   |            3s              2.000           -0.535        |                
   |            3p              3.000           -0.209        |                
   |                                                          |                
   |                 Pseudopotential Definition               |                
   |        Beta     l      e      Rc     scheme   norm       |                
   |          1      0   -0.535   1.807     qc      0         |                
   |          2      0    0.250   1.807     qc      0         |                
   |          3      1   -0.209   1.807     qc      0         |                
   |          4      1    0.250   1.807     qc      0         |                
   |          5      2    0.000   1.807     qc      0         |                
   |          6      2    0.250   1.807     qc      0         |                
   |         loc     3    0.000   1.807     pn      0         |                
   |                                                          |                
   | Augmentation charge Rinner = 1.263                       |                
   | Partial core correction Rc = 1.263                       |                
   ------------------------------------------------------------                
   | "3|1.8|4|4|5|30:31:32"                                   |                
   ------------------------------------------------------------                
   |      Author: Chris J. Pickard, Cambridge University      |                
   ============================================================                
 Warning: otfg_output_psp cannot write out meta-GGA pseudopotentials presently.

 Atomic calculation performed for In:
 1s2 2s2 2p6 3s2 3p6 3d10 4s2 4p6 4d10 5s2 5p1

 Converged in 84 iterations to an ae energy of -160093.328 eV

   ============================================================                
   | Pseudopotential Report - Date of generation 27-04-2025   |                
   ------------------------------------------------------------                
   | Element: In Ionic charge: 13.00 Level of theory: RSCAN   |                
   | Atomic Solver: Koelling-Harmon                           |                
   |                                                          |                
   |               Reference Electronic Structure             |                
   |         Orbital         Occupation         Energy        |                
   |            4d             10.000           -0.711        |                
   |            5s              2.000           -0.313        |                
   |            5p              1.000           -0.095        |                
   |                                                          |                
   |                 Pseudopotential Definition               |                
   |        Beta     l      e      Rc     scheme   norm       |                
   |          1      0   -0.313   2.501     qc      0         |                
   |          2      0    0.250   2.501     qc      0         |                
   |          3      1   -0.095   2.501     qc      0         |                
   |          4      1    0.250   2.501     qc      0         |                
   |          5      2   -0.711   2.207     qc      0         |                
   |          6      2    0.250   2.207     qc      0         |                
   |         loc     3    0.000   2.501     pn      0         |                
   |                                                          |                
   | Augmentation charge Rinner = 1.504                       |                
   | Partial core correction Rc = 1.504                       |                
   ------------------------------------------------------------                
   | "3|2.5|2.5|1.5|7|8|9|50:51:42U2.2U2.2"                   |                
   ------------------------------------------------------------                
   |      Author: Chris J. Pickard, Cambridge University      |                
   ============================================================                
 Warning: otfg_output_psp cannot write out meta-GGA pseudopotentials presently.

 Pseudo atomic calculation performed for P 3s2 3p3

 Converged in 23 iterations to a total energy of -208.0292 eV

 Pseudo atomic calculation performed for In 4d10 5s2 5p1

 Converged in 42 iterations to a total energy of -1747.4501 eV
 Calculation parallelised over 108 processes.
 Data is distributed by G-vector(3-way) and k-point(36-way)
 Each process may use up to 16 threads.

 ************************************ Title ************************************
 

 ***************************** General Parameters ******************************
  
 output verbosity                               : normal  (1)
 write checkpoint data to                       : In_Vacancy_Migration_15->60_Singlepoints_1.check
 type of calculation                            : single point energy
 stress calculation                             : off
 density difference calculation                 : off
 electron localisation func (ELF) calculation   : off
 Hirshfeld analysis                             : on
 polarisation (Berry phase) analysis            : off
 molecular orbital projected DOS                : off
 deltaSCF calculation                           : off
 unlimited duration calculation
 timing information                             : on
 memory usage estimate                          : on
 write extra output files                       : on
 write final potential to formatted file        : off
 write final density to formatted file          : off
 write BibTeX reference list                    : on
 write OTFG pseudopotential files               : on
 write electrostatic potential file             : on
 write bands file                               : on
 checkpoint writing                             : off
  
 output         length unit                     : A
 output           mass unit                     : amu
 output           time unit                     : ps
 output         charge unit                     : e
 output           spin unit                     : hbar/2
 output         energy unit                     : eV
 output          force unit                     : eV/A
 output       velocity unit                     : A/ps
 output       pressure unit                     : GPa
 output     inv_length unit                     : 1/A
 output      frequency unit                     : cm-1
 output force constant unit                     : eV/A**2
 output         volume unit                     : A**3
 output   IR intensity unit                     : (D/A)**2/amu
 output         dipole unit                     : D
 output         efield unit                     : eV/A/e
 output        entropy unit                     : J/mol/K
 output    efield chi2 unit                     : pm/V
  
 wavefunctions paging                           : none
 random number generator seed                   :   25644760
 data distribution                              : optimal for this architecture
 optimization strategy                          : balance speed and memory

 *********************** Exchange-Correlation Parameters ***********************
  
 using functional                               : RSCAN
 relativistic treatment                         : Koelling-Harmon
 DFT+D: Semi-empirical dispersion correction    : off

 ************************* Pseudopotential Parameters **************************
  
 pseudopotential representation                 : reciprocal space
 <beta|phi> representation                      : reciprocal space
 spin-orbit coupling                            : off

 **************************** Basis Set Parameters *****************************
  
 plane wave basis set cut-off                   :   900.0000   eV
 size of standard grid                          :     2.0000
 size of   fine   gmax                          :    30.7390   1/A
 finite basis set correction                    : none

 **************************** Electronic Parameters ****************************
  
 number of  electrons                           :  563.0    
 net charge of system                           :  0.000    
 net spin   of system                           :  1.000    
 number of  up  spins                           :  282.0    
 number of down spins                           :  281.0    
 treating system as spin-polarized
 number of bands                                :        338

 ********************* Electronic Minimization Parameters **********************
  
 Method: Treating system as metallic with density mixing treatment of electrons,
         and number of  SD  steps               :          1
         and number of  CG  steps               :          4
  
 total energy / atom convergence tol.           : 0.1000E-07   eV
 eigen-energy convergence tolerance             : 0.2234E-08   eV
 max force / atom convergence tol.              : ignored
 convergence tolerance window                   :          3   cycles
 max. number of SCF cycles                      :        100
 number of fixed-spin iterations                :         10
 smearing scheme                                : Gaussian
 smearing width                                 : 0.2000       eV
 Fermi energy convergence tolerance             : 0.2721E-13   eV
 periodic dipole correction                     : NONE

 ************************** Density Mixing Parameters **************************
  
 density-mixing scheme                          : Pulay
 max. length of mixing history                  :         20
 charge density mixing amplitude                : 0.5000    
   spin density mixing amplitude                :  2.000    
 cut-off energy for mixing                      :  900.0       eV

 *********************** Population Analysis Parameters ************************
  
 Population analysis with cutoff                :  3.000       A
 Population analysis output                     : summary and pdos components

 *******************************************************************************
  

                           -------------------------------
                                      Unit Cell
                           -------------------------------
        Real Lattice(A)                      Reciprocal Lattice(1/A)
    11.8016820    -0.0000080    -0.0000080        0.532397442   0.000000361   0.000000361
    -0.0000080    11.8016820    -0.0000080        0.000000361   0.532397442   0.000000361
    -0.0000080    -0.0000080    11.8016820        0.000000361   0.000000361   0.532397442

                       Lattice parameters(A)       Cell Angles
                    a =     11.801682          alpha =   90.000078
                    b =     11.801682          beta  =   90.000078
                    c =     11.801682          gamma =   90.000078

                       Current cell volume =          1643.734705       A**3
                                   density =             2.768402   AMU/A**3
                                           =             4.597040     g/cm^3

                           -------------------------------
                                     Cell Contents
                           -------------------------------
                         Total number of ions in cell =   63
                      Total number of species in cell =    2
                        Max number of any one species =   32

            xxxxxxxxxxxxxxxxxxxxxxxxxxxxxxxxxxxxxxxxxxxxxxxxxxxxxxxxxxxx
            x  Element    Atom        Fractional coordinates of atoms  x
            x            Number           u          v          w      x
            x----------------------------------------------------------x
            x  P            1         0.136383   0.136383   0.386316   x 
            x  P            2         0.376196   0.127143   0.129394   x 
            x  P            3         0.127143   0.376196   0.129394   x 
            x  P            4         0.406486   0.406486   0.374419   x 
            x  P            5         0.128010   0.128010   0.875024   x 
            x  P            6         0.380696   0.132499   0.622962   x 
            x  P            7         0.132499   0.380696   0.622962   x 
            x  P            8         0.375559   0.375559   0.874796   x 
            x  P            9         0.128117   0.627865   0.372703   x 
            x  P           10         0.376563   0.630251   0.118877   x 
            x  P           11         0.126639   0.879107   0.126336   x 
            x  P           12         0.374979   0.875060   0.376311   x 
            x  P           13         0.121657   0.629176   0.879187   x 
            x  P           14         0.379886   0.617031   0.620507   x 
            x  P           15         0.125137   0.876507   0.624789   x 
            x  P           16         0.376616   0.880625   0.870061   x 
            x  P           17         0.627865   0.128117   0.372703   x 
            x  P           18         0.879107   0.126639   0.126336   x 
            x  P           19         0.630251   0.376563   0.118877   x 
            x  P           20         0.875060   0.374979   0.376311   x 
            x  P           21         0.629176   0.121657   0.879187   x 
            x  P           22         0.876507   0.125137   0.624789   x 
            x  P           23         0.617031   0.379886   0.620508   x 
            x  P           24         0.880625   0.376616   0.870061   x 
            x  P           25         0.603893   0.603893   0.386051   x 
            x  P           26         0.872091   0.624465   0.128766   x 
            x  P           27         0.624465   0.872091   0.128766   x 
            x  P           28         0.872458   0.872458   0.376527   x 
            x  P           29         0.626464   0.626464   0.870115   x 
            x  P           30         0.874483   0.625232   0.621619   x 
            x  P           31         0.625232   0.874483   0.621619   x 
            x  P           32         0.875084   0.875083   0.876743   x 
            x  In           1         0.001955   0.001955  -0.001016   x 
            x  In           2         0.248557   0.004580   0.256540   x 
            x  In           3         0.004580   0.248557   0.256540   x 
            x  In           4         0.252654   0.252654   0.002866   x 
            x  In           5         0.002145   0.002145   0.496853   x 
            x  In           6         0.251242   0.006819   0.744246   x 
            x  In           7         0.006819   0.251242   0.744246   x 
            x  In           8         0.281020   0.281020   0.498275   x 
            x  In           9        -0.000789   0.499809   0.004434   x 
            x  In          10         0.257944   0.503643   0.249391   x 
            x  In          11         0.000142   0.751850   0.249275   x 
            x  In          12         0.251681   0.757096  -0.003462   x 
            x  In          13         0.003064   0.501758   0.497340   x 
            x  In          14         0.250492   0.507654   0.753591   x 
            x  In          15        -0.002206   0.751012   0.748457   x 
            x  In          16         0.254258   0.747127   0.504782   x 
            x  In          17         0.499809  -0.000789   0.004434   x 
            x  In          18         0.751850   0.000142   0.249275   x 
            x  In          19         0.503643   0.257944   0.249391   x 
            x  In          20         0.757096   0.251681  -0.003462   x 
            x  In          21         0.501758   0.003064   0.497340   x 
            x  In          22         0.751012  -0.002206   0.748457   x 
            x  In          23         0.507654   0.250492   0.753591   x 
            x  In          24         0.747127   0.254258   0.504782   x 
            x  In          25         0.502019   0.502019  -0.003834   x 
            x  In          26         0.743737   0.501005   0.256649   x 
            x  In          27         0.501005   0.743737   0.256649   x 
            x  In          28         0.748494   0.748494   0.000463   x 
            x  In          29         0.748288   0.497333   0.743533   x 
            x  In          30         0.497333   0.748288   0.743533   x 
            x  In          31         0.738090   0.738090   0.493824   x 
            xxxxxxxxxxxxxxxxxxxxxxxxxxxxxxxxxxxxxxxxxxxxxxxxxxxxxxxxxxxx


                         No user defined ionic velocities

                           -------------------------------
                                   Details of Species
                           -------------------------------

                               Mass of species in AMU
                                    P   30.9737600
                                    In  114.8180000

                          Electric Quadrupole Moment (Barn)
                                    P    1.0000000 No Isotope Defined
                                    In    0.7700000 Isotope115

                          Files used for pseudopotentials:
                                    P 3|1.8|4|4|5|30:31:32
                                    In 3|2.5|2.5|1.5|7|8|9|50:51:42U2.2U2.2

                           -------------------------------
                              k-Points For BZ Sampling
                           -------------------------------
                       MP grid size for SCF calculation is  4  4  4
                            with an offset of   0.125  0.125  0.125
                       Number of kpoints used =            36

                           -------------------------------
                               Symmetry and Constraints
                           -------------------------------

                      Maximum deviation from symmetry =  0.00000         ANG

                      Number of symmetry operations   =           1
                      Number of ionic constraints     =           3
                      Point group of crystal =     1: C1, 1, 1
                      Space group of crystal =     8: Cm, C -2y

             Set iprint > 1 for details on symmetry rotations/translations

                         Centre of mass is constrained
             Set iprint > 1 for details of linear ionic constraints

                         Number of cell constraints= 0
                         Cell constraints are:  1 2 3 4 5 6

                         External pressure/stress (GPa)
                          0.00000   0.00000   0.00000
                                    0.00000   0.00000
                                              0.00000
 
+---------------- MEMORY AND SCRATCH DISK ESTIMATES PER PROCESS --------------+
|                                                     Memory          Disk    |
| Baseline code, static data and system overhead      368.0 MB         0.0 MB |
| BLAS internal memory storage                          0.0 MB         0.0 MB |
| Model and support data                             4296.9 MB         0.0 MB |
| Electronic energy minimisation requirements        1299.4 MB         0.0 MB |
| Force calculation requirements                      127.4 MB         0.0 MB |
|                                               ----------------------------- |
| Approx. total storage required per process         5964.3 MB         0.0 MB |
|                                                                             |
| Requirements will fluctuate during execution and may exceed these estimates |
+-----------------------------------------------------------------------------+
Calculating approximate eigenstates for fixed initial Hamiltonian
Cut-off for approx. calculation is   89.988 eV
Improving approx. states at cut-off of  450.000 eV
Resetting cut-off to  900.000 eV
Calculating total energy with cut-off of  900.000 eV.
------------------------------------------------------------------------ <-- SCF
SCF loop      Energy           Fermi           Energy gain       Timer   <-- SCF
                               energy          per atom          (sec)   <-- SCF
------------------------------------------------------------------------ <-- SCF
Initial  -6.12894953E+004  0.00000000E+000                       427.35  <-- SCF
      1  -6.10539326E+004  1.93612147E+000  -3.73909068E+000     859.13  <-- SCF
      2  -6.10542887E+004  1.93600665E+000   5.65143129E-003    1162.59  <-- SCF
      3  -6.11179510E+004  2.25447866E+000   1.01051266E+000    1503.47  <-- SCF
      4  -6.11292278E+004  2.32838139E+000   1.78998032E-001    1983.95  <-- SCF
      5  -6.11357270E+004  2.43653015E+000   1.03161862E-001    2331.41  <-- SCF
      6  -6.11240205E+004  2.55767979E+000  -1.85818675E-001    2674.72  <-- SCF
      7  -6.11224837E+004  2.59928765E+000  -2.43934595E-002    3027.71  <-- SCF
      8  -6.11227563E+004  2.64218619E+000   4.32821100E-003    3387.34  <-- SCF
      9  -6.11235893E+004  2.65938182E+000   1.32214212E-002    3732.78  <-- SCF
     10  -6.11238850E+004  2.65032000E+000   4.69334862E-003    4091.16  <-- SCF
     11  -6.11239649E+004  2.65005575E+000   1.26822056E-003    4456.38  <-- SCF
     12  -6.11239898E+004  2.64882055E+000   3.96056019E-004    4807.02  <-- SCF
     13  -6.11239989E+004  2.64722922E+000   1.43822653E-004    5152.50  <-- SCF
     14  -6.11239995E+004  2.64690284E+000   1.01240691E-005    5526.61  <-- SCF
     15  -6.11239996E+004  2.64662214E+000   1.45781441E-006    5883.71  <-- SCF
     16  -6.11239998E+004  2.64666313E+000   2.50152190E-006    6213.95  <-- SCF
     17  -6.11239999E+004  2.64687501E+000   2.71200216E-006    6559.29  <-- SCF
     18  -6.11240000E+004  2.64696926E+000   8.83021623E-007    6894.98  <-- SCF
     19  -6.11240001E+004  2.64695879E+000   8.89419532E-007    7202.93  <-- SCF
     20  -6.11240001E+004  2.64693830E+000   3.40452311E-007    7489.34  <-- SCF
     21  -6.11240001E+004  2.64697692E+000   3.07951295E-008    7753.36  <-- SCF
     22  -6.11240001E+004  2.64699390E+000   4.84915653E-009    7989.43  <-- SCF
     23  -6.11240001E+004  2.64699156E+000   3.93935043E-009    8236.23  <-- SCF
------------------------------------------------------------------------ <-- SCF
 
Integrated Spin Density     =     1.32516     hbar/2
Integrated |Spin Density|   =     1.54038     hbar/2
 
Final energy, E             =  -61123.77526926     eV
Final free energy (E-TS)    =  -61124.00007553     eV
(energies not corrected for finite basis set)
 
NB est. 0K energy (E-0.5TS)      =  -61123.88767240     eV
 

 ************************** Forces **************************
 *                                                          *
 *               Cartesian components (eV/A)                *
 * -------------------------------------------------------- *
 *                         x            y            z      *
 *                                                          *
 * P               1      0.02902      0.02902     -0.06445 *
 * P               2     -0.01816      0.02489     -0.02309 *
 * P               3      0.02489     -0.01816     -0.02309 *
 * P               4     -0.23060     -0.23060      0.11943 *
 * P               5     -0.01063     -0.01063     -0.01061 *
 * P               6     -0.01796     -0.06103     -0.00280 *
 * P               7     -0.06103     -0.01796     -0.00281 *
 * P               8      0.01089      0.01090     -0.00787 *
 * P               9      0.01283     -0.01781      0.02242 *
 * P              10      0.02275     -0.04744      0.05936 *
 * P              11      0.00694      0.00583      0.01060 *
 * P              12      0.01527      0.00406      0.01982 *
 * P              13      0.04818      0.01458     -0.06122 *
 * P              14      0.04651      0.08240      0.04498 *
 * P              15      0.03098     -0.01897      0.02873 *
 * P              16     -0.02426     -0.04873      0.02820 *
 * P              17     -0.01781      0.01283      0.02242 *
 * P              18      0.00583      0.00694      0.01060 *
 * P              19     -0.04744      0.02275      0.05936 *
 * P              20      0.00406      0.01527      0.01981 *
 * P              21      0.01458      0.04818     -0.06121 *
 * P              22     -0.01897      0.03097      0.02873 *
 * P              23      0.08240      0.04651      0.04498 *
 * P              24     -0.04874     -0.02426      0.02820 *
 * P              25      0.14189      0.14189     -0.07018 *
 * P              26      0.01263      0.03639     -0.00446 *
 * P              27      0.03639      0.01263     -0.00446 *
 * P              28      0.00656      0.00656     -0.02640 *
 * P              29      0.01845      0.01846      0.03231 *
 * P              30      0.00514      0.01101     -0.01189 *
 * P              31      0.01101      0.00514     -0.01189 *
 * P              32      0.00674      0.00675      0.00188 *
 * In              1      0.00203      0.00203      0.00924 *
 * In              2      0.06037     -0.00392     -0.04055 *
 * In              3     -0.00393      0.06037     -0.04055 *
 * In              4     -0.01236     -0.01236     -0.02328 *
 * In              5      0.02398      0.02398      0.03293 *
 * In              6      0.02981     -0.02022      0.02070 *
 * In              7     -0.02021      0.02981      0.02070 *
 * In              8     -0.39348     -0.39348     -0.03858 *
 * In              9      0.01777      0.02195     -0.02679 *
 * In             10     -0.00207      0.04820      0.01743 *
 * In             11      0.00770     -0.01415      0.01855 *
 * In             12     -0.04005      0.00114      0.05952 *
 * In             13     -0.01234      0.00682      0.00574 *
 * In             14      0.09942     -0.08996     -0.07597 *
 * In             15      0.01785     -0.00908     -0.01280 *
 * In             16     -0.00876      0.00674     -0.10344 *
 * In             17      0.02195      0.01777     -0.02679 *
 * In             18     -0.01415      0.00770      0.01855 *
 * In             19      0.04820     -0.00207      0.01743 *
 * In             20      0.00114     -0.04005      0.05952 *
 * In             21      0.00682     -0.01234      0.00573 *
 * In             22     -0.00908      0.01784     -0.01279 *
 * In             23     -0.08996      0.09942     -0.07598 *
 * In             24      0.00673     -0.00877     -0.10344 *
 * In             25      0.01083      0.01083      0.05609 *
 * In             26      0.01234     -0.03356     -0.06108 *
 * In             27     -0.03356      0.01234     -0.06108 *
 * In             28      0.00711      0.00711     -0.00903 *
 * In             29     -0.01141      0.03984      0.03378 *
 * In             30      0.03984     -0.01142      0.03378 *
 * In             31      0.13912      0.13912      0.10699 *
 *                                                          *
 ************************************************************

 Pseudo atomic calculation performed for P 3s2 3p3

 Converged in 23 iterations to a total energy of -208.0292 eV

 Pseudo atomic calculation performed for In 4d10 5s2 5p1

 Converged in 42 iterations to a total energy of -1747.4501 eV
Charge spilling parameter for spin component 1 = 0.17%
Charge spilling parameter for spin component 2 = 0.17%

                   Orbital Populations                  
  ---------------------------------------------------------------
     Ion    Atom   Orbital              Up        Down      Spin
  ---------------------------------------------------------------
      P     1      S                    0.881     0.880     0.001
      P     1      Px                   0.646     0.637     0.008
      P     1      Py                   0.646     0.637     0.008
      P     1      Pz                   0.656     0.652     0.004
      P     2      S                    0.873     0.872     0.001
      P     2      Px                   0.657     0.653     0.003
      P     2      Py                   0.654     0.644     0.010
      P     2      Pz                   0.656     0.646     0.010
      P     3      S                    0.873     0.872     0.001
      P     3      Px                   0.654     0.644     0.010
      P     3      Py                   0.657     0.653     0.003
      P     3      Pz                   0.656     0.646     0.010
      P     4      S                    0.918     0.900     0.018
      P     4      Px                   0.640     0.577     0.063
      P     4      Py                   0.640     0.577     0.063
      P     4      Pz                   0.649     0.585     0.064
      P     5      S                    0.871     0.870     0.000
      P     5      Px                   0.657     0.653     0.003
      P     5      Py                   0.657     0.653     0.003
      P     5      Pz                   0.653     0.650     0.003
      P     6      S                    0.870     0.870    -0.000
      P     6      Px                   0.657     0.660    -0.002
      P     6      Py                   0.649     0.650    -0.001
      P     6      Pz                   0.652     0.653    -0.001
      P     7      S                    0.870     0.870    -0.000
      P     7      Px                   0.649     0.650    -0.001
      P     7      Py                   0.657     0.660    -0.002
      P     7      Pz                   0.652     0.653    -0.001
      P     8      S                    0.870     0.870    -0.000
      P     8      Px                   0.651     0.653    -0.002
      P     8      Py                   0.651     0.653    -0.002
      P     8      Pz                   0.657     0.658    -0.001
      P     9      S                    0.870     0.870    -0.000
      P     9      Px                   0.654     0.655    -0.001
      P     9      Py                   0.654     0.655    -0.001
      P     9      Pz                   0.652     0.653    -0.001
      P    10      S                    0.869     0.869    -0.000
      P    10      Px                   0.656     0.657    -0.002
      P    10      Py                   0.655     0.656    -0.001
      P    10      Pz                   0.652     0.650     0.002
      P    11      S                    0.871     0.871     0.000
      P    11      Px                   0.655     0.653     0.002
      P    11      Py                   0.655     0.653     0.002
      P    11      Pz                   0.652     0.649     0.003
      P    12      S                    0.870     0.870    -0.000
      P    12      Px                   0.653     0.654    -0.001
      P    12      Py                   0.652     0.653    -0.000
      P    12      Pz                   0.656     0.657    -0.001
      P    13      S                    0.873     0.872     0.001
      P    13      Px                   0.656     0.642     0.014
      P    13      Py                   0.658     0.653     0.006
      P    13      Pz                   0.658     0.644     0.013
      P    14      S                    0.910     0.893     0.017
      P    14      Px                   0.667     0.571     0.096
      P    14      Py                   0.672     0.572     0.100
      P    14      Pz                   0.667     0.572     0.095
      P    15      S                    0.874     0.872     0.001
      P    15      Px                   0.657     0.641     0.016
      P    15      Py                   0.656     0.640     0.016
      P    15      Pz                   0.660     0.654     0.005
      P    16      S                    0.874     0.873     0.001
      P    16      Px                   0.659     0.653     0.006
      P    16      Py                   0.657     0.642     0.014
      P    16      Pz                   0.653     0.641     0.012
      P    17      S                    0.870     0.870    -0.000
      P    17      Px                   0.654     0.655    -0.001
      P    17      Py                   0.654     0.655    -0.000
      P    17      Pz                   0.652     0.653    -0.001
      P    18      S                    0.871     0.871     0.000
      P    18      Px                   0.655     0.653     0.002
      P    18      Py                   0.655     0.653     0.002
      P    18      Pz                   0.652     0.649     0.003
      P    19      S                    0.869     0.869    -0.000
      P    19      Px                   0.655     0.656    -0.001
      P    19      Py                   0.656     0.657    -0.002
      P    19      Pz                   0.652     0.650     0.002
      P    20      S                    0.870     0.870    -0.000
      P    20      Px                   0.652     0.653    -0.000
      P    20      Py                   0.653     0.654    -0.001
      P    20      Pz                   0.656     0.657    -0.001
      P    21      S                    0.873     0.872     0.001
      P    21      Px                   0.658     0.653     0.006
      P    21      Py                   0.656     0.642     0.014
      P    21      Pz                   0.658     0.644     0.013
      P    22      S                    0.874     0.872     0.001
      P    22      Px                   0.656     0.640     0.016
      P    22      Py                   0.657     0.641     0.016
      P    22      Pz                   0.660     0.654     0.005
      P    23      S                    0.910     0.893     0.017
      P    23      Px                   0.672     0.572     0.100
      P    23      Py                   0.667     0.571     0.096
      P    23      Pz                   0.667     0.572     0.095
      P    24      S                    0.874     0.873     0.001
      P    24      Px                   0.657     0.642     0.014
      P    24      Py                   0.659     0.653     0.006
      P    24      Pz                   0.653     0.641     0.012
      P    25      S                    0.919     0.900     0.019
      P    25      Px                   0.635     0.570     0.065
      P    25      Py                   0.635     0.570     0.065
      P    25      Pz                   0.660     0.596     0.064
      P    26      S                    0.873     0.872     0.001
      P    26      Px                   0.654     0.645     0.009
      P    26      Py                   0.657     0.654     0.003
      P    26      Pz                   0.655     0.645     0.011
      P    27      S                    0.873     0.872     0.001
      P    27      Px                   0.657     0.654     0.003
      P    27      Py                   0.654     0.645     0.009
      P    27      Pz                   0.655     0.645     0.011
      P    28      S                    0.876     0.875     0.001
      P    28      Px                   0.650     0.641     0.009
      P    28      Py                   0.650     0.641     0.009
      P    28      Pz                   0.659     0.655     0.004
      P    29      S                    0.869     0.870    -0.000
      P    29      Px                   0.654     0.655    -0.002
      P    29      Py                   0.654     0.655    -0.002
      P    29      Pz                   0.653     0.654    -0.001
      P    30      S                    0.870     0.870    -0.000
      P    30      Px                   0.652     0.653    -0.001
      P    30      Py                   0.656     0.658    -0.002
      P    30      Pz                   0.653     0.652     0.000
      P    31      S                    0.870     0.870    -0.000
      P    31      Px                   0.656     0.658    -0.002
      P    31      Py                   0.652     0.653    -0.001
      P    31      Pz                   0.653     0.652     0.000
      P    32      S                    0.870     0.870     0.000
      P    32      Px                   0.655     0.652     0.003
      P    32      Py                   0.655     0.652     0.003
      P    32      Pz                   0.655     0.652     0.003
     In     1      Dzz                  1.000     1.000    -0.000
     In     1      Dzy                  0.998     0.998     0.000
     In     1      Dzx                  0.998     0.998     0.000
     In     1      Dxx-yy               1.000     1.000    -0.000
     In     1      Dxy                  0.998     0.998     0.000
     In     1      S                    0.703     0.703     0.000
     In     1      Px                   0.239     0.239    -0.000
     In     1      Py                   0.239     0.239    -0.000
     In     1      Pz                   0.241     0.241    -0.000
     In     1      S                   -0.232    -0.233     0.001
     In     2      Dzz                  1.000     1.000     0.000
     In     2      Dzy                  0.998     0.998     0.000
     In     2      Dzx                  0.999     0.999     0.000
     In     2      Dxx-yy               1.000     1.000     0.000
     In     2      Dxy                  0.999     0.999     0.000
     In     2      S                    0.706     0.707    -0.001
     In     2      Px                   0.239     0.239    -0.001
     In     2      Py                   0.241     0.242    -0.000
     In     2      Pz                   0.240     0.241    -0.001
     In     2      S                   -0.263    -0.265     0.001
     In     3      Dzz                  1.000     1.000     0.000
     In     3      Dzy                  0.999     0.999     0.000
     In     3      Dzx                  0.998     0.998     0.000
     In     3      Dxx-yy               1.000     1.000     0.000
     In     3      Dxy                  0.999     0.999     0.000
     In     3      S                    0.706     0.707    -0.001
     In     3      Px                   0.241     0.242    -0.000
     In     3      Py                   0.239     0.239    -0.001
     In     3      Pz                   0.240     0.241    -0.001
     In     3      S                   -0.263    -0.265     0.001
     In     4      Dzz                  1.000     1.000     0.000
     In     4      Dzy                  0.998     0.998     0.000
     In     4      Dzx                  0.998     0.998     0.000
     In     4      Dxx-yy               1.000     1.000     0.000
     In     4      Dxy                  0.999     0.998     0.000
     In     4      S                    0.708     0.709    -0.001
     In     4      Px                   0.240     0.240    -0.001
     In     4      Py                   0.240     0.240    -0.001
     In     4      Pz                   0.240     0.240    -0.000
     In     4      S                   -0.268    -0.269     0.001
     In     5      Dzz                  1.000     1.000     0.000
     In     5      Dzy                  0.999     0.999     0.000
     In     5      Dzx                  0.999     0.999     0.000
     In     5      Dxx-yy               1.000     1.000    -0.000
     In     5      Dxy                  0.999     0.999    -0.000
     In     5      S                    0.709     0.708     0.000
     In     5      Px                   0.241     0.239     0.001
     In     5      Py                   0.241     0.239     0.001
     In     5      Pz                   0.238     0.234     0.003
     In     5      S                   -0.244    -0.242    -0.002
     In     6      Dzz                  1.000     1.000     0.000
     In     6      Dzy                  0.999     0.999     0.000
     In     6      Dzx                  0.999     0.998     0.000
     In     6      Dxx-yy               1.000     1.000     0.000
     In     6      Dxy                  0.998     0.998     0.000
     In     6      S                    0.709     0.710    -0.001
     In     6      Px                   0.238     0.239    -0.001
     In     6      Py                   0.238     0.239    -0.000
     In     6      Pz                   0.239     0.240    -0.001
     In     6      S                   -0.264    -0.265     0.002
     In     7      Dzz                  1.000     1.000     0.000
     In     7      Dzy                  0.999     0.998     0.000
     In     7      Dzx                  0.999     0.999     0.000
     In     7      Dxx-yy               1.000     1.000     0.000
     In     7      Dxy                  0.998     0.998     0.000
     In     7      S                    0.709     0.710    -0.001
     In     7      Px                   0.238     0.239    -0.000
     In     7      Py                   0.238     0.239    -0.001
     In     7      Pz                   0.239     0.240    -0.001
     In     7      S                   -0.264    -0.266     0.002
     In     8      Dzz                  1.000     1.000     0.000
     In     8      Dzy                  0.999     0.999     0.000
     In     8      Dzx                  0.999     0.999     0.000
     In     8      Dxx-yy               1.000     1.000    -0.000
     In     8      Dxy                  0.999     0.999     0.000
     In     8      S                    0.709     0.709    -0.000
     In     8      Px                   0.233     0.235    -0.002
     In     8      Py                   0.233     0.235    -0.002
     In     8      Pz                   0.238     0.232     0.007
     In     8      S                   -0.232    -0.232    -0.000
     In     9      Dzz                  1.000     1.000     0.000
     In     9      Dzy                  0.998     0.998     0.000
     In     9      Dzx                  0.999     0.999    -0.000
     In     9      Dxx-yy               1.000     1.000     0.000
     In     9      Dxy                  0.999     0.998     0.000
     In     9      S                    0.710     0.711    -0.001
     In     9      Px                   0.237     0.236     0.001
     In     9      Py                   0.243     0.241     0.002
     In     9      Pz                   0.239     0.238     0.001
     In     9      S                   -0.252    -0.249    -0.003
     In    10      Dzz                  1.000     1.000     0.000
     In    10      Dzy                  0.999     0.999     0.000
     In    10      Dzx                  0.998     0.998     0.000
     In    10      Dxx-yy               1.000     1.000     0.000
     In    10      Dxy                  0.999     0.998     0.000
     In    10      S                    0.702     0.704    -0.002
     In    10      Px                   0.242     0.242     0.000
     In    10      Py                   0.246     0.244     0.002
     In    10      Pz                   0.238     0.238     0.000
     In    10      S                   -0.232    -0.229    -0.003
     In    11      Dzz                  1.000     1.000     0.000
     In    11      Dzy                  0.999     0.999     0.000
     In    11      Dzx                  0.998     0.998     0.000
     In    11      Dxx-yy               1.000     1.000     0.000
     In    11      Dxy                  0.998     0.998     0.000
     In    11      S                    0.707     0.707    -0.001
     In    11      Px                   0.241     0.241    -0.000
     In    11      Py                   0.240     0.240    -0.001
     In    11      Pz                   0.239     0.239    -0.001
     In    11      S                   -0.266    -0.267     0.001
     In    12      Dzz                  1.000     1.000     0.000
     In    12      Dzy                  0.998     0.998     0.000
     In    12      Dzx                  0.998     0.998     0.000
     In    12      Dxx-yy               1.000     1.000     0.000
     In    12      Dxy                  0.998     0.998     0.000
     In    12      S                    0.707     0.708    -0.001
     In    12      Px                   0.241     0.241    -0.001
     In    12      Py                   0.240     0.240    -0.001
     In    12      Pz                   0.238     0.238    -0.000
     In    12      S                   -0.266    -0.268     0.002
     In    13      Dzz                  1.000     1.000    -0.000
     In    13      Dzy                  0.999     0.999    -0.000
     In    13      Dzx                  0.998     0.998    -0.000
     In    13      Dxx-yy               1.000     1.000     0.000
     In    13      Dxy                  0.998     0.998    -0.000
     In    13      S                    0.710     0.709     0.001
     In    13      Px                   0.240     0.239     0.000
     In    13      Py                   0.240     0.239     0.000
     In    13      Pz                   0.240     0.240     0.000
     In    13      S                   -0.273    -0.270    -0.003
     In    14      Dzz                  1.000     1.000     0.000
     In    14      Dzy                  0.998     0.998     0.000
     In    14      Dzx                  0.998     0.998     0.000
     In    14      Dxx-yy               1.000     1.000     0.000
     In    14      Dxy                  0.999     0.998     0.000
     In    14      S                    0.703     0.707    -0.004
     In    14      Px                   0.240     0.241    -0.001
     In    14      Py                   0.248     0.249    -0.001
     In    14      Pz                   0.239     0.240    -0.001
     In    14      S                   -0.237    -0.236    -0.001
     In    15      Dzz                  1.000     1.000     0.000
     In    15      Dzy                  0.998     0.998     0.000
     In    15      Dzx                  0.998     0.998     0.000
     In    15      Dxx-yy               1.000     1.000     0.000
     In    15      Dxy                  0.999     0.999     0.000
     In    15      S                    0.709     0.710    -0.001
     In    15      Px                   0.237     0.238    -0.000
     In    15      Py                   0.238     0.239    -0.001
     In    15      Pz                   0.241     0.242    -0.001
     In    15      S                   -0.266    -0.267     0.002
     In    16      Dzz                  1.000     1.000     0.000
     In    16      Dzy                  0.998     0.998     0.000
     In    16      Dzx                  0.999     0.998     0.000
     In    16      Dxx-yy               1.000     1.000     0.000
     In    16      Dxy                  0.998     0.998     0.000
     In    16      S                    0.705     0.709    -0.004
     In    16      Px                   0.237     0.238    -0.001
     In    16      Py                   0.238     0.240    -0.002
     In    16      Pz                   0.247     0.248    -0.001
     In    16      S                   -0.241    -0.240    -0.001
     In    17      Dzz                  1.000     1.000     0.000
     In    17      Dzy                  0.999     0.999    -0.000
     In    17      Dzx                  0.998     0.998     0.000
     In    17      Dxx-yy               1.000     1.000     0.000
     In    17      Dxy                  0.999     0.998     0.000
     In    17      S                    0.710     0.711    -0.001
     In    17      Px                   0.243     0.241     0.002
     In    17      Py                   0.237     0.236     0.001
     In    17      Pz                   0.239     0.238     0.001
     In    17      S                   -0.252    -0.249    -0.003
     In    18      Dzz                  1.000     1.000     0.000
     In    18      Dzy                  0.998     0.998     0.000
     In    18      Dzx                  0.999     0.999     0.000
     In    18      Dxx-yy               1.000     1.000     0.000
     In    18      Dxy                  0.998     0.998     0.000
     In    18      S                    0.707     0.707    -0.001
     In    18      Px                   0.240     0.240    -0.001
     In    18      Py                   0.241     0.241    -0.000
     In    18      Pz                   0.239     0.239    -0.001
     In    18      S                   -0.266    -0.267     0.001
     In    19      Dzz                  1.000     1.000     0.000
     In    19      Dzy                  0.998     0.998     0.000
     In    19      Dzx                  0.999     0.999     0.000
     In    19      Dxx-yy               1.000     1.000     0.000
     In    19      Dxy                  0.999     0.998     0.000
     In    19      S                    0.702     0.704    -0.002
     In    19      Px                   0.246     0.244     0.002
     In    19      Py                   0.242     0.242     0.000
     In    19      Pz                   0.238     0.238     0.000
     In    19      S                   -0.232    -0.229    -0.003
     In    20      Dzz                  1.000     1.000     0.000
     In    20      Dzy                  0.998     0.998     0.000
     In    20      Dzx                  0.998     0.998     0.000
     In    20      Dxx-yy               1.000     1.000     0.000
     In    20      Dxy                  0.998     0.998     0.000
     In    20      S                    0.707     0.708    -0.001
     In    20      Px                   0.240     0.240    -0.001
     In    20      Py                   0.241     0.241    -0.001
     In    20      Pz                   0.238     0.238    -0.000
     In    20      S                   -0.266    -0.268     0.002
     In    21      Dzz                  1.000     1.000    -0.000
     In    21      Dzy                  0.998     0.998    -0.000
     In    21      Dzx                  0.999     0.999    -0.000
     In    21      Dxx-yy               1.000     1.000    -0.000
     In    21      Dxy                  0.998     0.998    -0.000
     In    21      S                    0.710     0.709     0.001
     In    21      Px                   0.240     0.239     0.000
     In    21      Py                   0.240     0.239     0.000
     In    21      Pz                   0.240     0.240     0.000
     In    21      S                   -0.273    -0.270    -0.003
     In    22      Dzz                  1.000     1.000     0.000
     In    22      Dzy                  0.998     0.998     0.000
     In    22      Dzx                  0.998     0.998     0.000
     In    22      Dxx-yy               1.000     1.000     0.000
     In    22      Dxy                  0.999     0.999     0.000
     In    22      S                    0.709     0.710    -0.001
     In    22      Px                   0.238     0.239    -0.001
     In    22      Py                   0.237     0.238    -0.000
     In    22      Pz                   0.241     0.242    -0.001
     In    22      S                   -0.266    -0.267     0.002
     In    23      Dzz                  1.000     1.000     0.000
     In    23      Dzy                  0.998     0.998     0.000
     In    23      Dzx                  0.998     0.998     0.000
     In    23      Dxx-yy               1.000     1.000     0.000
     In    23      Dxy                  0.999     0.998     0.000
     In    23      S                    0.703     0.707    -0.004
     In    23      Px                   0.248     0.249    -0.001
     In    23      Py                   0.240     0.241    -0.001
     In    23      Pz                   0.239     0.240    -0.001
     In    23      S                   -0.237    -0.236    -0.001
     In    24      Dzz                  1.000     1.000     0.000
     In    24      Dzy                  0.999     0.998     0.000
     In    24      Dzx                  0.998     0.998     0.000
     In    24      Dxx-yy               1.000     1.000     0.000
     In    24      Dxy                  0.998     0.998     0.000
     In    24      S                    0.705     0.709    -0.004
     In    24      Px                   0.238     0.240    -0.002
     In    24      Py                   0.237     0.238    -0.001
     In    24      Pz                   0.247     0.248    -0.001
     In    24      S                   -0.241    -0.240    -0.001
     In    25      Dzz                  1.000     1.000     0.000
     In    25      Dzy                  0.998     0.998    -0.000
     In    25      Dzx                  0.998     0.998    -0.000
     In    25      Dxx-yy               1.000     1.000    -0.000
     In    25      Dxy                  0.998     0.998    -0.000
     In    25      S                    0.709     0.709     0.000
     In    25      Px                   0.243     0.243     0.000
     In    25      Py                   0.243     0.243     0.000
     In    25      Pz                   0.235     0.235     0.000
     In    25      S                   -0.275    -0.275    -0.001
     In    26      Dzz                  1.000     1.000     0.000
     In    26      Dzy                  0.999     0.998     0.000
     In    26      Dzx                  0.998     0.998     0.000
     In    26      Dxx-yy               1.000     1.000     0.000
     In    26      Dxy                  0.999     0.998     0.000
     In    26      S                    0.702     0.705    -0.003
     In    26      Px                   0.239     0.239    -0.000
     In    26      Py                   0.244     0.244     0.001
     In    26      Pz                   0.240     0.240    -0.000
     In    26      S                   -0.234    -0.231    -0.002
     In    27      Dzz                  1.000     1.000     0.000
     In    27      Dzy                  0.998     0.998     0.000
     In    27      Dzx                  0.999     0.998     0.000
     In    27      Dxx-yy               1.000     1.000     0.000
     In    27      Dxy                  0.999     0.998     0.000
     In    27      S                    0.702     0.705    -0.003
     In    27      Px                   0.244     0.244     0.001
     In    27      Py                   0.239     0.239    -0.000
     In    27      Pz                   0.240     0.240    -0.000
     In    27      S                   -0.234    -0.231    -0.002
     In    28      Dzz                  1.000     1.000     0.000
     In    28      Dzy                  0.998     0.998     0.000
     In    28      Dzx                  0.998     0.998     0.000
     In    28      Dxx-yy               1.000     1.000     0.000
     In    28      Dxy                  0.999     0.999     0.000
     In    28      S                    0.708     0.709    -0.001
     In    28      Px                   0.239     0.240    -0.001
     In    28      Py                   0.239     0.240    -0.001
     In    28      Pz                   0.240     0.241    -0.000
     In    28      S                   -0.264    -0.266     0.002
     In    29      Dzz                  1.000     1.000     0.000
     In    29      Dzy                  0.999     0.998     0.000
     In    29      Dzx                  0.998     0.998     0.000
     In    29      Dxx-yy               1.000     1.000     0.000
     In    29      Dxy                  0.998     0.998     0.000
     In    29      S                    0.704     0.708    -0.005
     In    29      Px                   0.239     0.242    -0.002
     In    29      Py                   0.246     0.249    -0.002
     In    29      Pz                   0.236     0.238    -0.002
     In    29      S                   -0.240    -0.240    -0.000
     In    30      Dzz                  1.000     1.000     0.000
     In    30      Dzy                  0.998     0.998     0.000
     In    30      Dzx                  0.999     0.998     0.000
     In    30      Dxx-yy               1.000     1.000     0.000
     In    30      Dxy                  0.998     0.998     0.000
     In    30      S                    0.704     0.708    -0.005
     In    30      Px                   0.246     0.249    -0.002
     In    30      Py                   0.239     0.242    -0.002
     In    30      Pz                   0.236     0.238    -0.002
     In    30      S                   -0.240    -0.240    -0.000
     In    31      Dzz                  1.000     1.000     0.000
     In    31      Dzy                  0.999     0.999     0.000
     In    31      Dzx                  0.999     0.999     0.000
     In    31      Dxx-yy               1.000     1.000    -0.000
     In    31      Dxy                  0.999     0.999     0.000
     In    31      S                    0.708     0.707     0.001
     In    31      Px                   0.238     0.238     0.001
     In    31      Py                   0.238     0.238     0.001
     In    31      Pz                   0.244     0.235     0.009
     In    31      S                   -0.230    -0.228    -0.001
  ---------------------------------------------------------------
                           Total:     282.162   280.837     1.325
  ---------------------------------------------------------------

     Atomic Populations (Mulliken)
     -----------------------------
Species          Ion Spin      s       p       d       f      Total   Charge(e)   Spin(hbar/2)
==============================================================================================
  P               1   up:     0.881   1.948   0.000   0.000   2.829    -0.636        0.022
                  1   dn:     0.880   1.926   0.000   0.000   2.807
  P               2   up:     0.873   1.966   0.000   0.000   2.839    -0.654        0.024
                  2   dn:     0.872   1.943   0.000   0.000   2.815
  P               3   up:     0.873   1.966   0.000   0.000   2.839    -0.654        0.024
                  3   dn:     0.872   1.943   0.000   0.000   2.815
  P               4   up:     0.918   1.928   0.000   0.000   2.846    -0.485        0.207
                  4   dn:     0.900   1.739   0.000   0.000   2.639
  P               5   up:     0.871   1.966   0.000   0.000   2.836    -0.663        0.010
                  5   dn:     0.870   1.956   0.000   0.000   2.826
  P               6   up:     0.870   1.959   0.000   0.000   2.829    -0.662       -0.004
                  6   dn:     0.870   1.962   0.000   0.000   2.833
  P               7   up:     0.870   1.959   0.000   0.000   2.829    -0.662       -0.004
                  7   dn:     0.870   1.962   0.000   0.000   2.833
  P               8   up:     0.870   1.959   0.000   0.000   2.829    -0.663       -0.004
                  8   dn:     0.870   1.964   0.000   0.000   2.834
  P               9   up:     0.870   1.961   0.000   0.000   2.831    -0.664       -0.003
                  9   dn:     0.870   1.963   0.000   0.000   2.833
  P              10   up:     0.869   1.963   0.000   0.000   2.832    -0.665       -0.001
                 10   dn:     0.869   1.964   0.000   0.000   2.833
  P              11   up:     0.871   1.963   0.000   0.000   2.834    -0.660        0.008
                 11   dn:     0.871   1.955   0.000   0.000   2.826
  P              12   up:     0.870   1.961   0.000   0.000   2.831    -0.664       -0.003
                 12   dn:     0.870   1.964   0.000   0.000   2.834
  P              13   up:     0.873   1.972   0.000   0.000   2.845    -0.656        0.034
                 13   dn:     0.872   1.939   0.000   0.000   2.811
  P              14   up:     0.910   2.007   0.000   0.000   2.916    -0.524        0.309
                 14   dn:     0.893   1.715   0.000   0.000   2.608
  P              15   up:     0.874   1.972   0.000   0.000   2.846    -0.654        0.038
                 15   dn:     0.872   1.936   0.000   0.000   2.808
  P              16   up:     0.874   1.970   0.000   0.000   2.844    -0.653        0.034
                 16   dn:     0.873   1.937   0.000   0.000   2.809
  P              17   up:     0.870   1.961   0.000   0.000   2.831    -0.664       -0.003
                 17   dn:     0.870   1.963   0.000   0.000   2.833
  P              18   up:     0.871   1.963   0.000   0.000   2.834    -0.660        0.008
                 18   dn:     0.871   1.955   0.000   0.000   2.826
  P              19   up:     0.869   1.963   0.000   0.000   2.832    -0.665       -0.001
                 19   dn:     0.869   1.964   0.000   0.000   2.833
  P              20   up:     0.870   1.961   0.000   0.000   2.831    -0.664       -0.003
                 20   dn:     0.870   1.964   0.000   0.000   2.834
  P              21   up:     0.873   1.972   0.000   0.000   2.845    -0.656        0.034
                 21   dn:     0.872   1.939   0.000   0.000   2.811
  P              22   up:     0.874   1.972   0.000   0.000   2.846    -0.654        0.038
                 22   dn:     0.872   1.936   0.000   0.000   2.808
  P              23   up:     0.910   2.007   0.000   0.000   2.916    -0.524        0.309
                 23   dn:     0.893   1.715   0.000   0.000   2.608
  P              24   up:     0.874   1.970   0.000   0.000   2.844    -0.653        0.034
                 24   dn:     0.873   1.937   0.000   0.000   2.809
  P              25   up:     0.919   1.930   0.000   0.000   2.849    -0.485        0.213
                 25   dn:     0.900   1.737   0.000   0.000   2.636
  P              26   up:     0.873   1.966   0.000   0.000   2.839    -0.654        0.024
                 26   dn:     0.872   1.943   0.000   0.000   2.815
  P              27   up:     0.873   1.966   0.000   0.000   2.839    -0.654        0.024
                 27   dn:     0.872   1.943   0.000   0.000   2.815
  P              28   up:     0.876   1.959   0.000   0.000   2.835    -0.647        0.024
                 28   dn:     0.875   1.936   0.000   0.000   2.811
  P              29   up:     0.869   1.960   0.000   0.000   2.830    -0.664       -0.005
                 29   dn:     0.870   1.965   0.000   0.000   2.834
  P              30   up:     0.870   1.960   0.000   0.000   2.830    -0.664       -0.003
                 30   dn:     0.870   1.963   0.000   0.000   2.833
  P              31   up:     0.870   1.960   0.000   0.000   2.830    -0.664       -0.003
                 31   dn:     0.870   1.963   0.000   0.000   2.833
  P              32   up:     0.870   1.966   0.000   0.000   2.836    -0.663        0.009
                 32   dn:     0.870   1.957   0.000   0.000   2.827
  In              1   up:     0.471   0.719   4.995   0.000   6.185     0.631        0.000
                  1   dn:     0.470   0.720   4.995   0.000   6.185
  In              2   up:     0.442   0.720   4.995   0.000   6.157     0.685       -0.001
                  2   dn:     0.442   0.721   4.995   0.000   6.158
  In              3   up:     0.442   0.720   4.995   0.000   6.157     0.685       -0.001
                  3   dn:     0.442   0.721   4.995   0.000   6.158
  In              4   up:     0.440   0.719   4.995   0.000   6.154     0.692       -0.001
                  4   dn:     0.439   0.721   4.995   0.000   6.155
  In              5   up:     0.464   0.719   4.995   0.000   6.178     0.648        0.005
                  5   dn:     0.466   0.713   4.995   0.000   6.174
  In              6   up:     0.445   0.715   4.995   0.000   6.155     0.688       -0.001
                  6   dn:     0.444   0.718   4.995   0.000   6.157
  In              7   up:     0.445   0.715   4.995   0.000   6.155     0.688       -0.001
                  7   dn:     0.444   0.718   4.995   0.000   6.157
  In              8   up:     0.477   0.704   4.995   0.000   6.176     0.650        0.003
                  8   dn:     0.477   0.701   4.995   0.000   6.173
  In              9   up:     0.458   0.718   4.995   0.000   6.171     0.658        0.000
                  9   dn:     0.462   0.714   4.995   0.000   6.171
  In             10   up:     0.470   0.726   4.995   0.000   6.191     0.615       -0.003
                 10   dn:     0.475   0.724   4.994   0.000   6.194
  In             11   up:     0.441   0.719   4.995   0.000   6.155     0.690       -0.001
                 11   dn:     0.440   0.721   4.995   0.000   6.156
  In             12   up:     0.441   0.719   4.995   0.000   6.154     0.691       -0.001
                 12   dn:     0.440   0.720   4.995   0.000   6.155
  In             13   up:     0.436   0.719   4.995   0.000   6.150     0.698       -0.002
                 13   dn:     0.439   0.719   4.995   0.000   6.152
  In             14   up:     0.466   0.726   4.995   0.000   6.186     0.619       -0.008
                 14   dn:     0.471   0.730   4.994   0.000   6.195
  In             15   up:     0.443   0.716   4.995   0.000   6.154     0.691       -0.001
                 15   dn:     0.442   0.718   4.995   0.000   6.155
  In             16   up:     0.465   0.723   4.995   0.000   6.182     0.628       -0.008
                 16   dn:     0.469   0.726   4.994   0.000   6.190
  In             17   up:     0.458   0.718   4.995   0.000   6.171     0.658        0.000
                 17   dn:     0.462   0.714   4.995   0.000   6.171
  In             18   up:     0.441   0.719   4.995   0.000   6.155     0.690       -0.001
                 18   dn:     0.440   0.721   4.995   0.000   6.156
  In             19   up:     0.470   0.726   4.995   0.000   6.191     0.615       -0.003
                 19   dn:     0.475   0.724   4.994   0.000   6.194
  In             20   up:     0.441   0.719   4.995   0.000   6.154     0.691       -0.001
                 20   dn:     0.440   0.720   4.995   0.000   6.155
  In             21   up:     0.436   0.719   4.995   0.000   6.150     0.698       -0.002
                 21   dn:     0.439   0.719   4.995   0.000   6.152
  In             22   up:     0.443   0.716   4.995   0.000   6.154     0.691       -0.001
                 22   dn:     0.442   0.718   4.995   0.000   6.155
  In             23   up:     0.466   0.726   4.995   0.000   6.186     0.619       -0.008
                 23   dn:     0.471   0.730   4.994   0.000   6.195
  In             24   up:     0.465   0.723   4.995   0.000   6.182     0.628       -0.008
                 24   dn:     0.469   0.726   4.994   0.000   6.190
  In             25   up:     0.434   0.720   4.995   0.000   6.149     0.702       -0.000
                 25   dn:     0.434   0.720   4.995   0.000   6.149
  In             26   up:     0.468   0.723   4.995   0.000   6.186     0.623       -0.005
                 26   dn:     0.473   0.723   4.994   0.000   6.191
  In             27   up:     0.468   0.723   4.995   0.000   6.186     0.623       -0.005
                 27   dn:     0.473   0.723   4.994   0.000   6.191
  In             28   up:     0.444   0.718   4.995   0.000   6.157     0.685       -0.001
                 28   dn:     0.443   0.720   4.995   0.000   6.158
  In             29   up:     0.464   0.722   4.995   0.000   6.181     0.628       -0.011
                 29   dn:     0.469   0.729   4.994   0.000   6.192
  In             30   up:     0.464   0.722   4.995   0.000   6.181     0.628       -0.011
                 30   dn:     0.469   0.729   4.994   0.000   6.192
  In             31   up:     0.478   0.720   4.995   0.000   6.194     0.622        0.010
                 31   dn:     0.479   0.710   4.995   0.000   6.184
==============================================================================================

                 Bond                   Population        Spin       Length (A)
================================================================================
              P 14 -- In 16                  0.76        -0.00          2.53393
              P 23 -- In 24                  0.76        -0.00          2.53393
              P 23 -- In 29                  0.76        -0.00          2.53550
              P 14 -- In 30                  0.76        -0.00          2.53550
              P 23 -- In 23                  0.74        -0.00          2.54263
              P 14 -- In 14                  0.74        -0.00          2.54263
              P 8  -- In 4                   0.67         0.00          2.54799
              P 10 -- In 12                  0.68         0.00          2.54906
              P 19 -- In 20                  0.68         0.00          2.54906
              P 8  -- In 25                  0.65        -0.00          2.55077
              P 29 -- In 28                  0.67         0.00          2.55236
              P 1  -- In 2                   0.68        -0.00          2.55301
              P 1  -- In 3                   0.68        -0.00          2.55301
              P 4  -- In 8                   0.75         0.00          2.55375
              P 18 -- In 1                   0.64        -0.00          2.55463
              P 11 -- In 1                   0.64        -0.00          2.55463
              P 29 -- In 25                  0.65        -0.00          2.55479
              P 16 -- In 12                  0.66        -0.00          2.55485
              P 24 -- In 20                  0.66        -0.00          2.55485
              P 25 -- In 27                  0.72        -0.00          2.55547
              P 25 -- In 26                  0.72        -0.00          2.55547
              P 32 -- In 15                  0.65         0.00          2.55606
              P 32 -- In 22                  0.65         0.00          2.55607
              P 5  -- In 7                   0.65         0.00          2.55791
              P 5  -- In 6                   0.65         0.00          2.55791
              P 17 -- In 18                  0.67         0.00          2.55812
              P 9  -- In 11                  0.67         0.00          2.55812
              P 3  -- In 4                   0.65        -0.00          2.55923
              P 2  -- In 4                   0.65        -0.00          2.55923
              P 13 -- In 12                  0.65        -0.00          2.55966
              P 21 -- In 20                  0.65        -0.00          2.55966
              P 28 -- In 11                  0.66        -0.00          2.55970
              P 28 -- In 18                  0.66        -0.00          2.55970
              P 9  -- In 13                  0.66        -0.00          2.56061
              P 17 -- In 21                  0.66        -0.00          2.56061
              P 12 -- In 2                   0.66         0.00          2.56135
              P 20 -- In 3                   0.66         0.00          2.56135
              P 7  -- In 14                  0.63         0.00          2.56139
              P 6  -- In 23                  0.63         0.00          2.56139
              P 20 -- In 13                  0.65        -0.00          2.56142
              P 12 -- In 21                  0.65        -0.00          2.56142
              P 30 -- In 15                  0.67         0.00          2.56164
              P 31 -- In 22                  0.67         0.00          2.56164
              P 27 -- In 28                  0.65        -0.00          2.56184
              P 26 -- In 28                  0.65        -0.00          2.56184
              P 19 -- In 19                  0.64        -0.00          2.56218
              P 10 -- In 10                  0.64        -0.00          2.56218
              P 32 -- In 1                   0.64        -0.00          2.56222
              P 4  -- In 19                  0.71         0.00          2.56225
              P 4  -- In 10                  0.71         0.00          2.56225
              P 21 -- In 23                  0.64         0.00          2.56237
              P 13 -- In 14                  0.64         0.00          2.56237
              P 5  -- In 1                   0.64        -0.00          2.56250
              P 27 -- In 18                  0.65        -0.00          2.56252
              P 26 -- In 11                  0.65        -0.00          2.56252
              P 31 -- In 30                  0.64         0.00          2.56254
              P 30 -- In 29                  0.64         0.00          2.56254
              P 15 -- In 6                   0.66        -0.00          2.56272
              P 22 -- In 7                   0.66        -0.00          2.56272
              P 26 -- In 9                   0.63         0.00          2.56282
              P 27 -- In 17                  0.63         0.00          2.56282
              P 6  -- In 21                  0.65        -0.00          2.56372
              P 7  -- In 13                  0.65        -0.00          2.56372
              P 31 -- In 21                  0.64        -0.00          2.56463
              P 30 -- In 13                  0.64        -0.00          2.56463
              P 19 -- In 25                  0.66        -0.00          2.56509
              P 10 -- In 25                  0.66        -0.00          2.56509
              P 22 -- In 22                  0.66        -0.00          2.56558
              P 15 -- In 15                  0.66        -0.00          2.56558
              P 3  -- In 9                   0.63         0.00          2.56565
              P 2  -- In 17                  0.63         0.00          2.56565
              P 6  -- In 6                   0.67         0.00          2.56571
              P 7  -- In 7                   0.67         0.00          2.56571
              P 21 -- In 22                  0.64        -0.00          2.56606
              P 13 -- In 15                  0.64        -0.00          2.56606
              P 22 -- In 5                   0.61         0.00          2.56614
              P 15 -- In 5                   0.61         0.00          2.56614
              P 24 -- In 9                   0.62         0.00          2.56657
              P 16 -- In 17                  0.62         0.00          2.56657
              P 11 -- In 11                  0.65         0.00          2.56697
              P 18 -- In 18                  0.65         0.00          2.56697
              P 19 -- In 26                  0.63        -0.00          2.56794
              P 10 -- In 27                  0.63        -0.00          2.56794
              P 32 -- In 28                  0.64        -0.00          2.56823
              P 18 -- In 20                  0.64         0.00          2.56860
              P 11 -- In 12                  0.64         0.00          2.56860
              P 21 -- In 17                  0.61         0.00          2.56983
              P 13 -- In 9                   0.61         0.00          2.56983
              P 5  -- In 4                   0.64        -0.00          2.56984
              P 20 -- In 24                  0.63         0.00          2.57064
              P 12 -- In 16                  0.63         0.00          2.57064
              P 12 -- In 27                  0.64        -0.00          2.57069
              P 20 -- In 26                  0.64        -0.00          2.57069
              P 24 -- In 7                   0.64        -0.00          2.57138
              P 16 -- In 6                   0.64        -0.00          2.57138
              P 3  -- In 3                   0.64        -0.00          2.57156
              P 2  -- In 2                   0.64        -0.00          2.57156
              P 17 -- In 19                  0.64        -0.00          2.57190
              P 9  -- In 10                  0.64        -0.00          2.57190
              P 29 -- In 30                  0.64         0.00          2.57317
              P 29 -- In 29                  0.64         0.00          2.57317
              P 6  -- In 8                   0.64         0.00          2.57321
              P 7  -- In 8                   0.64         0.00          2.57321
              P 18 -- In 3                   0.64         0.00          2.57375
              P 11 -- In 2                   0.64         0.00          2.57375
              P 17 -- In 24                  0.63         0.00          2.57427
              P 9  -- In 16                  0.63         0.00          2.57427
              P 25 -- In 31                  0.70         0.00          2.57570
              P 31 -- In 31                  0.64        -0.00          2.57676
              P 30 -- In 31                  0.64        -0.00          2.57676
              P 3  -- In 10                  0.63        -0.00          2.57890
              P 2  -- In 19                  0.63        -0.00          2.57890
              P 8  -- In 23                  0.64         0.00          2.57973
              P 8  -- In 14                  0.64         0.00          2.57973
              P 22 -- In 24                  0.61        -0.00          2.58058
              P 15 -- In 16                  0.61        -0.00          2.58058
              P 26 -- In 26                  0.61        -0.00          2.58754
              P 27 -- In 27                  0.61        -0.00          2.58754
              P 16 -- In 30                  0.61         0.00          2.58818
              P 24 -- In 29                  0.61         0.00          2.58818
              P 28 -- In 5                   0.62        -0.00          2.58874
              P 1  -- In 5                   0.63        -0.00          2.59256
              P 28 -- In 31                  0.57        -0.00          2.63545
              P 1  -- In 8                   0.46        -0.00          2.75196
================================================================================

 Hirshfeld supercell size:           2           2           2
Standard grid dimensions: 240 240 240
Fine grid dimensions:     240 240 240


     Hirshfeld Analysis
     ------------------
Species   Ion     Hirshfeld Charge (e)  Spin (hbar/2)
===================================================
  P        1                -0.23        0.02
  P        2                -0.23        0.02
  P        3                -0.23        0.02
  P        4                -0.17        0.17
  P        5                -0.23        0.01
  P        6                -0.24       -0.00
  P        7                -0.24       -0.00
  P        8                -0.24       -0.00
  P        9                -0.24       -0.00
  P       10                -0.24       -0.00
  P       11                -0.23        0.01
  P       12                -0.24       -0.00
  P       13                -0.23        0.03
  P       14                -0.19        0.25
  P       15                -0.23        0.03
  P       16                -0.23        0.03
  P       17                -0.24       -0.00
  P       18                -0.23        0.01
  P       19                -0.24       -0.00
  P       20                -0.24       -0.00
  P       21                -0.23        0.03
  P       22                -0.23        0.03
  P       23                -0.19        0.25
  P       24                -0.23        0.03
  P       25                -0.17        0.18
  P       26                -0.23        0.02
  P       27                -0.23        0.02
  P       28                -0.23        0.02
  P       29                -0.24       -0.00
  P       30                -0.24       -0.00
  P       31                -0.24       -0.00
  P       32                -0.23        0.01
  In       1                 0.24        0.00
  In       2                 0.23        0.00
  In       3                 0.23        0.00
  In       4                 0.24        0.00
  In       5                 0.24        0.01
  In       6                 0.24        0.00
  In       7                 0.24        0.00
  In       8                 0.25        0.02
  In       9                 0.24        0.01
  In      10                 0.23        0.01
  In      11                 0.23        0.00
  In      12                 0.24        0.00
  In      13                 0.23        0.00
  In      14                 0.22        0.01
  In      15                 0.24        0.00
  In      16                 0.23        0.02
  In      17                 0.24        0.01
  In      18                 0.23        0.00
  In      19                 0.23        0.01
  In      20                 0.24        0.00
  In      21                 0.23        0.00
  In      22                 0.24        0.00
  In      23                 0.22        0.01
  In      24                 0.23        0.02
  In      25                 0.23       -0.00
  In      26                 0.23        0.01
  In      27                 0.23        0.01
  In      28                 0.24        0.00
  In      29                 0.23        0.01
  In      30                 0.23        0.01
  In      31                 0.24        0.02
===================================================

 
 A BibTeX formatted list of references used in this run has been written to 
 In_Vacancy_Migration_15->60_Singlepoints_1.bib
 
Initialisation time =     30.10 s
Calculation time    =   8469.58 s
Finalisation time   =    166.17 s
Total time          =   8665.86 s
Peak Memory Use     = 9519492 kB
 
Overall parallel efficiency rating: Terrible (34%)
 
Data was distributed by:-
G-vector (3-way); efficiency rating: Poor (37%)
k-point (36-way); efficiency rating: Very good (84%)
