 +-------------------------------------------------+
 |                                                 |
 |      CCC   AA    SSS  TTTTT  EEEEE  PPPP        |
 |     C     A  A  S       T    E      P   P       |
 |     C     AAAA   SS     T    EEE    PPPP        |
 |     C     A  A     S    T    E      P           |
 |      CCC  A  A  SSS     T    EEEEE  P           |
 |                                                 |
 +-------------------------------------------------+
 |                                                 |
 | Welcome to Academic Release CASTEP version 22.11|
 | Ab Initio Total Energy Program                  |
 |                                                 |
 | Authors:                                        |
 | M. Segall, M. Probert, C. Pickard, P. Hasnip,   |
 | S. Clark, K. Refson, J. R. Yates, M. Payne      |
 |                                                 |
 | Contributors:                                   |
 | P. Lindan, P. Haynes, J. White, V. Milman,      |
 | N. Govind, M. Gibson, P. Tulip, V. Cocula,      |
 | B. Montanari, D. Quigley, M. Glover,            |
 | L. Bernasconi, A. Perlov, M. Plummer,           |
 | E. McNellis, J. Meyer, J. Gale, D. Jochym       |
 | J. Aarons, B. Walker, R. Gillen, D. Jones       |
 | T. Green, I. J. Bush, C. J. Armstrong,          |
 | E. J. Higgins, E. L. Brown, M. S. McFly,        |
 | J. Wilkins, B-C. Shih, P. J. P. Byrne,          |
 | R. J. Maurer, J. C. Womack, J. Dziedzic,        |
 | A. Bartok-Partay, L. LeBlanc, T. K. Stenczel,   |
 | J. Kermode, S. Sturniolo, B. Shi, B. Durham     |
 | M. Evans, M. J. Smith                           |
 |                                                 |
 | Copyright (c) 2000 - 2021                       |
 |                                                 |
 |     Distributed under license from Cambridge    |
 |     Enterprise for academic use only.           |
 |                                                 |
 | Please cite                                     |
 |                                                 |
 |     "First principles methods using CASTEP"     |
 |                                                 |
 |         Zeitschrift fuer Kristallographie       |
 |           220(5-6) pp. 567-570 (2005)           |
 |                                                 |
 | S. J. Clark, M. D. Segall, C. J. Pickard,       |
 | P. J. Hasnip, M. J. Probert, K. Refson,         |
 | M. C. Payne                                     |
 |                                                 |
 |       in all publications arising from          |
 |              your use of CASTEP                 |
 |                                                 |
 +-------------------------------------------------+
 |                                                 |
 |              http://www.castep.org              |
 |                                                 |
 +-------------------------------------------------+



 Compiled for linux_x86_64_gfortran10-XT on Thu, 16 Mar 2023 13:12:36 +0000
 from code version Version unavailable
 Compiler: GNU Fortran 11.2.0; Optimisation: fast
 MATHLIBS: LibSci (LAPACK version 3.10.1)
 FFT Lib : fftw3 version commercial-fftw-3.3.10-sse2-avx-avx2-avx2_128
 Fundamental constants values: CODATA 2014

 Run started: Mon, 25 Mar 2024 14:57:39 +0000

 Atomic calculation performed for P: 1s2 2s2 2p6 3s2 3p3

 Converged in 47 iterations to an ae energy of -9309.074 eV

   ============================================================                
   | Pseudopotential Report - Date of generation 25-03-2024   |                
   ------------------------------------------------------------                
   | Element: P Ionic charge:  5.00 Level of theory: RSCAN    |                
   | Atomic Solver: Koelling-Harmon                           |                
   |                                                          |                
   |               Reference Electronic Structure             |                
   |         Orbital         Occupation         Energy        |                
   |            3s              2.000           -0.535        |                
   |            3p              3.000           -0.209        |                
   |                                                          |                
   |                 Pseudopotential Definition               |                
   |        Beta     l      e      Rc     scheme   norm       |                
   |          1      0   -0.535   1.807     qc      0         |                
   |          2      0    0.250   1.807     qc      0         |                
   |          3      1   -0.209   1.807     qc      0         |                
   |          4      1    0.250   1.807     qc      0         |                
   |          5      2    0.000   1.807     qc      0         |                
   |          6      2    0.250   1.807     qc      0         |                
   |         loc     3    0.000   1.807     pn      0         |                
   |                                                          |                
   | Augmentation charge Rinner = 1.263                       |                
   | Partial core correction Rc = 1.263                       |                
   ------------------------------------------------------------                
   | "3|1.8|4|4|5|30:31:32"                                   |                
   ------------------------------------------------------------                
   |      Author: Chris J. Pickard, Cambridge University      |                
   ============================================================                
 Warning: otfg_output_psp cannot write out meta-GGA pseudopotentials presently.

 Atomic calculation performed for In:
 1s2 2s2 2p6 3s2 3p6 3d10 4s2 4p6 4d10 5s2 5p1

 Converged in 84 iterations to an ae energy of -160093.327 eV

   ============================================================                
   | Pseudopotential Report - Date of generation 25-03-2024   |                
   ------------------------------------------------------------                
   | Element: In Ionic charge: 13.00 Level of theory: RSCAN   |                
   | Atomic Solver: Koelling-Harmon                           |                
   |                                                          |                
   |               Reference Electronic Structure             |                
   |         Orbital         Occupation         Energy        |                
   |            4d             10.000           -0.711        |                
   |            5s              2.000           -0.313        |                
   |            5p              1.000           -0.095        |                
   |                                                          |                
   |                 Pseudopotential Definition               |                
   |        Beta     l      e      Rc     scheme   norm       |                
   |          1      0   -0.313   2.501     qc      0         |                
   |          2      0    0.250   2.501     qc      0         |                
   |          3      1   -0.095   2.501     qc      0         |                
   |          4      1    0.250   2.501     qc      0         |                
   |          5      2   -0.711   2.207     qc      0         |                
   |          6      2    0.250   2.207     qc      0         |                
   |         loc     3    0.000   2.501     pn      0         |                
   |                                                          |                
   | Augmentation charge Rinner = 1.504                       |                
   | Partial core correction Rc = 1.504                       |                
   ------------------------------------------------------------                
   | "3|2.5|2.5|1.5|7|8|9|50:51:42U2.2U2.2"                   |                
   ------------------------------------------------------------                
   |      Author: Chris J. Pickard, Cambridge University      |                
   ============================================================                
 Warning: otfg_output_psp cannot write out meta-GGA pseudopotentials presently.

 Pseudo atomic calculation performed for P 3s2 3p3

 Converged in 23 iterations to a total energy of -208.0292 eV

 Pseudo atomic calculation performed for In 4d10 5s2 5p1

 Converged in 42 iterations to a total energy of -1747.4500 eV
 Calculation parallelised over 208 processes.
 Data is distributed by G-vector(4-way) and k-point(52-way)
 Each process may use up to 2 threads.

 ************************************ Title ************************************
 

 ***************************** General Parameters ******************************
  
 output verbosity                               : normal  (1)
 write checkpoint data to                       : StackingFaultStructs_(0_0_1)_(1_1_0)_5.check
 type of calculation                            : geometry optimization
 stress calculation                             : off
 density difference calculation                 : off
 electron localisation func (ELF) calculation   : off
 Hirshfeld analysis                             : on
 polarisation (Berry phase) analysis            : off
 molecular orbital projected DOS                : off
 deltaSCF calculation                           : off
 unlimited duration calculation
 timing information                             : on
 memory usage estimate                          : on
 write extra output files                       : on
 write final potential to formatted file        : off
 write final density to formatted file          : off
 write BibTeX reference list                    : on
 write OTFG pseudopotential files               : on
 write electrostatic potential file             : on
 write bands file                               : on
 checkpoint writing                             : off
  
 output         length unit                     : A
 output           mass unit                     : amu
 output           time unit                     : ps
 output         charge unit                     : e
 output           spin unit                     : hbar/2
 output         energy unit                     : eV
 output          force unit                     : eV/A
 output       velocity unit                     : A/ps
 output       pressure unit                     : GPa
 output     inv_length unit                     : 1/A
 output      frequency unit                     : cm-1
 output force constant unit                     : eV/A**2
 output         volume unit                     : A**3
 output   IR intensity unit                     : (D/A)**2/amu
 output         dipole unit                     : D
 output         efield unit                     : eV/A/e
 output        entropy unit                     : J/mol/K
 output    efield chi2 unit                     : pm/V
  
 wavefunctions paging                           : none
 random number generator seed                   : randomised (145740297)
 data distribution                              : optimal for this architecture
 optimization strategy                          : balance speed and memory

 *********************** Exchange-Correlation Parameters ***********************
  
 using functional                               : RSCAN
 relativistic treatment                         : Koelling-Harmon
 DFT+D: Semi-empirical dispersion correction    : off

 ************************* Pseudopotential Parameters **************************
  
 pseudopotential representation                 : reciprocal space
 <beta|phi> representation                      : reciprocal space
 spin-orbit coupling                            : off

 **************************** Basis Set Parameters *****************************
  
 plane wave basis set cut-off                   :   900.0000   eV
 size of standard grid                          :     2.0000
 size of   fine   gmax                          :    30.7390   1/A
 finite basis set correction                    : none

 **************************** Electronic Parameters ****************************
  
 number of  electrons                           :  288.0    
 net charge of system                           :  0.000    
 treating system as non-spin-polarized
 number of bands                                :        173

 ********************* Electronic Minimization Parameters **********************
  
 Method: Treating system as metallic with density mixing treatment of electrons,
         and number of  SD  steps               :          1
         and number of  CG  steps               :          4
  
 total energy / atom convergence tol.           : 0.1000E-07   eV
 eigen-energy convergence tolerance             : 0.2222E-08   eV
 max force / atom convergence tol.              : ignored
 convergence tolerance window                   :          3   cycles
 max. number of SCF cycles                      :         50
 number of fixed-spin iterations                :         10
 smearing scheme                                : Gaussian
 smearing width                                 : 0.2000       eV
 Fermi energy convergence tolerance             : 0.2721E-13   eV
 periodic dipole correction                     : NONE

 ************************** Density Mixing Parameters **************************
  
 density-mixing scheme                          : Pulay
 max. length of mixing history                  :         15
 charge density mixing amplitude                : 0.5000    
 cut-off energy for mixing                      :  900.0       eV

 *********************** Population Analysis Parameters ************************
  
 Population analysis with cutoff                :  3.000       A
 Population analysis output                     : summary and pdos components

 ********************** Geometry Optimization Parameters ***********************
  
 optimization method                            : LBFGS
 max. no. of LBFGS updates                      : unbounded
 preconditioned LBFGS is activated
 preconditioner type                            : EXP
     stabilization constant                     :     0.1000
     parameter A                                :     3.0000
     nearest neighbor distance                  : automatic
     cut-off distance                           : automatic
     parameter mu                               : automatic
 variable cell method                           : fixed basis quality
 max. number of steps                           :         30
 estimated bulk modulus                         :  500.0       GPa
 estimated <frequency>                          :  1668.       cm-1
 geom line minimiser                            : on
 with line minimiser tolerance                  :     0.4000
 total energy convergence tolerance             : 0.2000E-04   eV/atom
        max ionic |force| tolerance             : 0.1000E-02   eV/A
 max ionic |displacement| tolerance             : 0.1000E-02   A
   max |stress component| tolerance             : 0.1000       GPa
 convergence tolerance window                   :          2   steps
 backup results every                           :          5   steps
 write geom trajectory file                     : on

 *******************************************************************************
  

                           -------------------------------
                                      Unit Cell
                           -------------------------------
        Real Lattice(A)                      Reciprocal Lattice(1/A)
     8.3456610     0.0000000     0.0000000        0.752868503   0.000000000   0.000000000
     0.0000000     8.3456610     0.0000000        0.000000000   0.752868503  -0.153564916
     0.0000000     2.4074020    11.8025470        0.000000000   0.000000000   0.532358423

                       Lattice parameters(A)       Cell Angles
                    a =      8.345661          alpha =   78.471350
                    b =      8.345661          beta  =   90.000000
                    c =     12.045568          gamma =   90.000000

                       Current cell volume =           822.048078       A**3
                                   density =             2.837630   AMU/A**3
                                           =             4.711995     g/cm^3

                           -------------------------------
                                     Cell Contents
                           -------------------------------
                         Total number of ions in cell =   32
                      Total number of species in cell =    2
                        Max number of any one species =   16

            xxxxxxxxxxxxxxxxxxxxxxxxxxxxxxxxxxxxxxxxxxxxxxxxxxxxxxxxxxxx
            x  Element    Atom        Fractional coordinates of atoms  x
            x            Number           u          v          w      x
            x----------------------------------------------------------x
            x  P            1         0.500000   0.640664   0.379030   x 
            x  P            2         0.250000  -0.041753   0.144744   x 
            x  P            3         0.500000   0.508126   0.838495   x 
            x  P            4         0.500000   0.140664   0.379030   x 
            x  P            5         0.750000   0.323663   0.611301   x 
            x  P            6         0.000000   0.140664   0.379030   x 
            x  P            7         0.250000   0.458247   0.144744   x 
            x  P            8         0.250000   0.323663   0.611301   x 
            x  P            9         0.750000   0.458247   0.144744   x 
            x  P           10         0.000000   0.008126   0.838495   x 
            x  P           11         0.000000   0.640664   0.379030   x 
            x  P           12         0.500000   0.008126   0.838495   x 
            x  P           13         0.250000  -0.176337   0.611301   x 
            x  P           14         0.750000  -0.176337   0.611301   x 
            x  P           15         0.000000   0.508126   0.838495   x 
            x  P           16         0.750000  -0.041753   0.144744   x 
            x  In           1         0.250000   0.673878   0.263889   x 
            x  In           2         0.500000   0.356497   0.497478   x 
            x  In           3         0.750000   0.039003   0.731457   x 
            x  In           4         0.000000   0.356497   0.497478   x 
            x  In           5         0.250000   0.039003   0.731457   x 
            x  In           6         0.000000  -0.143503   0.497478   x 
            x  In           7         0.500000  -0.143503   0.497478   x 
            x  In           8         0.750000   0.539003   0.731457   x 
            x  In           9         0.750000   0.673878   0.263889   x 
            x  In          10         0.500000   0.490306   0.033607   x 
            x  In          11         0.750000   0.173878   0.263889   x 
            x  In          12         0.250000   0.539003   0.731457   x 
            x  In          13         0.000000   0.490306   0.033607   x 
            x  In          14         0.250000   0.173878   0.263889   x 
            x  In          15         0.000000  -0.009694   0.033607   x 
            x  In          16         0.500000  -0.009694   0.033607   x 
            xxxxxxxxxxxxxxxxxxxxxxxxxxxxxxxxxxxxxxxxxxxxxxxxxxxxxxxxxxxx


                         No user defined ionic velocities

                           -------------------------------
                                   Details of Species
                           -------------------------------

                               Mass of species in AMU
                                    P   30.9737600
                                    In  114.8180000

                          Electric Quadrupole Moment (Barn)
                                    P    1.0000000 No Isotope Defined
                                    In    0.7700000 Isotope115

                          Files used for pseudopotentials:
                                    P 3|1.8|4|4|5|30:31:32
                                    In 3|2.5|2.5|1.5|7|8|9|50:51:42U2.2U2.2

                           -------------------------------
                              k-Points For BZ Sampling
                           -------------------------------
                       MP grid size for SCF calculation is  4  6  4
                            with an offset of   0.125  0.083  0.125
                       Number of kpoints used =            52

                           -------------------------------
                               Symmetry and Constraints
                           -------------------------------

                      Cell is a supercell containing 4 primitive cells
                      Maximum deviation from symmetry =  0.00000         ANG

                      Number of symmetry operations   =           1
                      Number of ionic constraints     =          64
                      Point group of crystal =     1: C1, 1, 1
                      Space group of crystal =     6: Pm, P -2y

             Set iprint > 1 for details on symmetry rotations/translations

                         Centre of mass is NOT constrained
             Set iprint > 1 for details of linear ionic constraints

                         Number of cell constraints= 6
                         Cell constraints are:  0 0 0 0 0 0

                         External pressure/stress (GPa)
                          0.00000   0.00000   0.00000
                                    0.00000   0.00000
                                              0.00000
 
+---------------- MEMORY AND SCRATCH DISK ESTIMATES PER PROCESS --------------+
|                                                     Memory          Disk    |
| Baseline code, static data and system overhead      488.0 MB         0.0 MB |
| BLAS internal memory storage                          0.0 MB         0.0 MB |
| Model and support data                             1650.8 MB         0.0 MB |
| Electronic energy minimisation requirements         214.2 MB         0.0 MB |
| Force calculation requirements                       35.7 MB         0.0 MB |
|                                               ----------------------------- |
| Approx. total storage required per process         2353.0 MB         0.0 MB |
|                                                                             |
| Requirements will fluctuate during execution and may exceed these estimates |
+-----------------------------------------------------------------------------+
Calculating approximate eigenstates for fixed initial Hamiltonian
Cut-off for approx. calculation is   89.988 eV
Improving approx. states at cut-off of  450.000 eV
Resetting cut-off to  900.000 eV
Calculating total energy with cut-off of  900.000 eV.
------------------------------------------------------------------------ <-- SCF
SCF loop      Energy           Fermi           Energy gain       Timer   <-- SCF
                               energy          per atom          (sec)   <-- SCF
------------------------------------------------------------------------ <-- SCF
Initial  -3.15030029E+004  0.00000000E+000                        61.25  <-- SCF
      1  -3.13985325E+004  2.85112039E+000  -3.26469937E+000     101.87  <-- SCF
      2  -3.13986209E+004  2.85067104E+000   2.76268427E-003     134.82  <-- SCF
      3  -3.14291338E+004  3.35878326E+000   9.53529108E-001     172.73  <-- SCF
      4  -3.14346859E+004  3.44731681E+000   1.73502253E-001     217.69  <-- SCF
      5  -3.14311061E+004  3.72290974E+000  -1.11868346E-001     254.89  <-- SCF
      6  -3.14321738E+004  3.80377333E+000   3.33659613E-002     292.87  <-- SCF
      7  -3.14317475E+004  3.85780298E+000  -1.33244028E-002     332.35  <-- SCF
      8  -3.14326439E+004  3.86990937E+000   2.80147388E-002     370.41  <-- SCF
      9  -3.14326392E+004  3.84118082E+000  -1.47813550E-004     407.80  <-- SCF
     10  -3.14326800E+004  3.82411892E+000   1.27471521E-003     446.92  <-- SCF
     11  -3.14327004E+004  3.82773907E+000   6.38807349E-004     484.37  <-- SCF
     12  -3.14327056E+004  3.82537157E+000   1.61922821E-004     522.35  <-- SCF
     13  -3.14327063E+004  3.82853484E+000   2.11253749E-005     561.72  <-- SCF
     14  -3.14327064E+004  3.82823239E+000   2.29927902E-006     595.65  <-- SCF
     15  -3.14327064E+004  3.82782708E+000   5.43514696E-007     628.50  <-- SCF
     16  -3.14327064E+004  3.82783606E+000   1.19383048E-008     655.98  <-- SCF
     17  -3.14327064E+004  3.82785957E+000  -4.20919743E-010     683.10  <-- SCF
     18  -3.14327064E+004  3.82783214E+000   8.18250965E-010     710.03  <-- SCF
------------------------------------------------------------------------ <-- SCF
 
Final energy, E             =  -31432.67968719     eV
Final free energy (E-TS)    =  -31432.70638086     eV
(energies not corrected for finite basis set)
 
NB est. 0K energy (E-0.5TS)      =  -31432.69303402     eV
 
 
+---------------- MEMORY AND SCRATCH DISK ESTIMATES PER PROCESS --------------+
|                                                     Memory          Disk    |
| Model and support data                             1010.7 MB         0.0 MB |
| Electronic energy minimisation requirements         214.2 MB         0.0 MB |
| Geometry minimisation requirements                  252.1 MB         0.0 MB |
|                                               ----------------------------- |
| Approx. total storage required per process         1477.0 MB         0.0 MB |
|                                                                             |
| Requirements will fluctuate during execution and may exceed these estimates |
+-----------------------------------------------------------------------------+
 

 ******************************** Constrained Forces ********************************
 *                                                                                  *
 *                           Cartesian components (eV/A)                            *
 * -------------------------------------------------------------------------------- *
 *                         x                    y                    z              *
 *                                                                                  *
 * P               1      0.00000(cons'd)      0.00000(cons'd)     -0.16939         *
 * P               2      0.00000(cons'd)      0.00000(cons'd)      0.08389         *
 * P               3      0.00000(cons'd)      0.00000(cons'd)      0.12737         *
 * P               4      0.00000(cons'd)      0.00000(cons'd)     -0.16938         *
 * P               5     -0.00000(cons'd)      0.00000(cons'd)      0.00227         *
 * P               6      0.00000(cons'd)      0.00000(cons'd)     -0.16938         *
 * P               7      0.00000(cons'd)      0.00000(cons'd)      0.08389         *
 * P               8      0.00000(cons'd)      0.00000(cons'd)      0.00227         *
 * P               9     -0.00000(cons'd)      0.00000(cons'd)      0.08390         *
 * P              10      0.00000(cons'd)     -0.00000(cons'd)      0.12737         *
 * P              11      0.00000(cons'd)      0.00000(cons'd)     -0.16938         *
 * P              12     -0.00000(cons'd)     -0.00000(cons'd)      0.12737         *
 * P              13      0.00000(cons'd)      0.00000(cons'd)      0.00226         *
 * P              14      0.00000(cons'd)      0.00000(cons'd)      0.00227         *
 * P              15      0.00000(cons'd)      0.00000(cons'd)      0.12737         *
 * P              16      0.00000(cons'd)      0.00000(cons'd)      0.08389         *
 * In              1     -0.00000(cons'd)      0.00000(cons'd)      0.20896         *
 * In              2      0.00000(cons'd)      0.00000(cons'd)      0.02540         *
 * In              3      0.00000(cons'd)     -0.00000(cons'd)      0.12739         *
 * In              4      0.00000(cons'd)      0.00000(cons'd)      0.02540         *
 * In              5      0.00000(cons'd)      0.00000(cons'd)      0.12739         *
 * In              6      0.00000(cons'd)      0.00000(cons'd)      0.02540         *
 * In              7      0.00000(cons'd)      0.00000(cons'd)      0.02541         *
 * In              8      0.00000(cons'd)      0.00000(cons'd)      0.12739         *
 * In              9      0.00000(cons'd)      0.00000(cons'd)      0.20896         *
 * In             10      0.00000(cons'd)     -0.00000(cons'd)     -0.40589         *
 * In             11      0.00000(cons'd)      0.00000(cons'd)      0.20896         *
 * In             12      0.00000(cons'd)      0.00000(cons'd)      0.12739         *
 * In             13      0.00000(cons'd)      0.00000(cons'd)     -0.40590         *
 * In             14      0.00000(cons'd)      0.00000(cons'd)      0.20896         *
 * In             15      0.00000(cons'd)      0.00000(cons'd)     -0.40590         *
 * In             16      0.00000(cons'd)      0.00000(cons'd)     -0.40589         *
 *                                                                                  *
 ************************************************************************************
 EXP precond LBFGS => estimated nearest neighbor distance :  2.490       A
 EXP precond LBFGS => estimated cutoff distance :  4.980       A

 ************************************** Forces **************************************
 *                                                                                  *
 *                           Cartesian components (eV/A)                            *
 * -------------------------------------------------------------------------------- *
 *                         x                    y                    z              *
 *                                                                                  *
 * P               1     -0.00001(cons'd)      0.02325(cons'd)     -0.16939         *
 * P               2      0.00001(cons'd)      0.10254(cons'd)      0.08389         *
 * P               3     -0.00001(cons'd)     -0.26162(cons'd)      0.12737         *
 * P               4     -0.00001(cons'd)      0.02325(cons'd)     -0.16938         *
 * P               5     -0.00000(cons'd)      0.03432(cons'd)      0.00227         *
 * P               6      0.00000(cons'd)      0.02325(cons'd)     -0.16938         *
 * P               7      0.00001(cons'd)      0.10254(cons'd)      0.08389         *
 * P               8      0.00001(cons'd)      0.03432(cons'd)      0.00227         *
 * P               9     -0.00000(cons'd)      0.10254(cons'd)      0.08390         *
 * P              10      0.00000(cons'd)     -0.26162(cons'd)      0.12737         *
 * P              11      0.00000(cons'd)      0.02325(cons'd)     -0.16938         *
 * P              12     -0.00001(cons'd)     -0.26162(cons'd)      0.12737         *
 * P              13      0.00001(cons'd)      0.03432(cons'd)      0.00226         *
 * P              14     -0.00000(cons'd)      0.03432(cons'd)      0.00227         *
 * P              15      0.00000(cons'd)     -0.26162(cons'd)      0.12737         *
 * P              16     -0.00000(cons'd)      0.10254(cons'd)      0.08389         *
 * In              1      0.00001(cons'd)     -0.02547(cons'd)      0.20896         *
 * In              2     -0.00001(cons'd)      0.00212(cons'd)      0.02540         *
 * In              3     -0.00000(cons'd)      0.02800(cons'd)      0.12739         *
 * In              4      0.00000(cons'd)      0.00212(cons'd)      0.02540         *
 * In              5      0.00001(cons'd)      0.02800(cons'd)      0.12739         *
 * In              6      0.00000(cons'd)      0.00213(cons'd)      0.02540         *
 * In              7     -0.00001(cons'd)      0.00213(cons'd)      0.02541         *
 * In              8     -0.00000(cons'd)      0.02799(cons'd)      0.12739         *
 * In              9     -0.00000(cons'd)     -0.02547(cons'd)      0.20896         *
 * In             10     -0.00001(cons'd)      0.09687(cons'd)     -0.40589         *
 * In             11     -0.00000(cons'd)     -0.02547(cons'd)      0.20896         *
 * In             12      0.00001(cons'd)      0.02799(cons'd)      0.12739         *
 * In             13      0.00000(cons'd)      0.09687(cons'd)     -0.40590         *
 * In             14      0.00001(cons'd)     -0.02547(cons'd)      0.20896         *
 * In             15      0.00000(cons'd)      0.09687(cons'd)     -0.40590         *
 * In             16     -0.00001(cons'd)      0.09687(cons'd)     -0.40589         *
 *                                                                                  *
 ************************************************************************************
 doing test perturbation to get energy scale for EXP preconditioner

                           -------------------------------
                                     Cell Contents
                           -------------------------------

            xxxxxxxxxxxxxxxxxxxxxxxxxxxxxxxxxxxxxxxxxxxxxxxxxxxxxxxxxxxxxxxxx
            x  Element         Atom        Fractional coordinates of atoms  x
            x                 Number           u          v          w      x
            x---------------------------------------------------------------x
            x  P                 1         0.501845   0.642899   0.379987   x
            x  P                 2         0.250976   0.961038   0.145121   x
            x  P                 3         0.501845   0.510112   0.840316   x
            x  P                 4         0.501845   0.141364   0.379987   x
            x  P                 5         0.752511   0.325089   0.612753   x
            x  P                 6         0.000000   0.141364   0.379987   x
            x  P                 7         0.250976   0.459983   0.145121   x
            x  P                 8         0.250976   0.325089   0.612753   x
            x  P                 9         0.752511   0.459983   0.145121   x
            x  P                10         0.000000   0.008577   0.840316   x
            x  P                11         0.000000   0.642899   0.379987   x
            x  P                12         0.501845   0.008577   0.840316   x
            x  P                13         0.250976   0.826144   0.612753   x
            x  P                14         0.752511   0.826144   0.612753   x
            x  P                15         0.000000   0.510112   0.840316   x
            x  P                16         0.752511   0.961038   0.145121   x
            x  In                1         0.250976   0.676193   0.264568   x
            x  In                2         0.501845   0.357989   0.498700   x
            x  In                3         0.752511   0.039499   0.733121   x
            x  In                4         0.000000   0.357989   0.498700   x
            x  In                5         0.250976   0.039499   0.733121   x
            x  In                6         0.000000   0.859044   0.498700   x
            x  In                7         0.501845   0.859044   0.498700   x
            x  In                8         0.752511   0.541033   0.733121   x
            x  In                9         0.752511   0.676193   0.264568   x
            x  In               10         0.501845   0.492125   0.033695   x
            x  In               11         0.752511   0.174658   0.264568   x
            x  In               12         0.250976   0.541033   0.733121   x
            x  In               13         0.000000   0.492125   0.033695   x
            x  In               14         0.250976   0.174658   0.264568   x
            x  In               15         0.000000   0.993180   0.033695   x
            x  In               16         0.501845   0.993180   0.033695   x
            xxxxxxxxxxxxxxxxxxxxxxxxxxxxxxxxxxxxxxxxxxxxxxxxxxxxxxxxxxxxxxxxx


------------------------------------------------------------------------ <-- SCF
SCF loop      Energy           Fermi           Energy gain       Timer   <-- SCF
                               energy          per atom          (sec)   <-- SCF
------------------------------------------------------------------------ <-- SCF
Initial  -3.14309820E+004  0.00000000E+000                       754.01  <-- SCF
      1  -3.14324992E+004  3.81914595E+000   4.74111022E-002     791.67  <-- SCF
      2  -3.14326989E+004  3.81903968E+000   6.24248930E-003     837.64  <-- SCF
      3  -3.14327000E+004  3.81882915E+000   3.14333426E-005     876.37  <-- SCF
      4  -3.14327013E+004  3.81983644E+000   4.26322759E-005     916.42  <-- SCF
      5  -3.14327016E+004  3.82017289E+000   7.75437298E-006     960.15  <-- SCF
      6  -3.14327016E+004  3.82025625E+000   1.64363610E-006     999.18  <-- SCF
      7  -3.14327016E+004  3.82024236E+000   1.28408944E-007    1032.51  <-- SCF
      8  -3.14327016E+004  3.82025104E+000   2.13626920E-008    1061.99  <-- SCF
      9  -3.14327016E+004  3.82025054E+000   1.44528024E-009    1088.98  <-- SCF
     10  -3.14327016E+004  3.82024367E+000   2.61987254E-010    1115.95  <-- SCF
     11  -3.14327016E+004  3.82023830E+000   1.33410483E-010    1142.85  <-- SCF
------------------------------------------------------------------------ <-- SCF
 
Final energy, E             =  -31432.68060057     eV
Final free energy (E-TS)    =  -31432.70162132     eV
(energies not corrected for finite basis set)
 
NB est. 0K energy (E-0.5TS)      =  -31432.69111094     eV
 

 ************************************** Forces **************************************
 *                                                                                  *
 *                           Cartesian components (eV/A)                            *
 * -------------------------------------------------------------------------------- *
 *                         x                    y                    z              *
 *                                                                                  *
 * P               1     -0.02559(cons'd)      0.00335(cons'd)     -0.17825         *
 * P               2      0.00761(cons'd)      0.01549(cons'd)      0.00462         *
 * P               3     -0.02972(cons'd)     -0.30739(cons'd)     -0.24067         *
 * P               4     -0.02519(cons'd)      0.15593(cons'd)     -0.23373         *
 * P               5     -0.16565(cons'd)      0.03627(cons'd)      0.08736         *
 * P               6      0.17925(cons'd)      0.15650(cons'd)     -0.14908         *
 * P               7      0.00765(cons'd)      0.10643(cons'd)      0.09556         *
 * P               8      0.00831(cons'd)      0.03553(cons'd)     -0.01669         *
 * P               9     -0.16659(cons'd)      0.10881(cons'd)      0.20151         *
 * P              10      0.22027(cons'd)     -0.30333(cons'd)     -0.06843         *
 * P              11      0.17907(cons'd)      0.00396(cons'd)     -0.09357         *
 * P              12     -0.02894(cons'd)     -0.30410(cons'd)     -0.17954         *
 * P              13      0.00812(cons'd)     -0.06940(cons'd)     -0.08497         *
 * P              14     -0.16616(cons'd)     -0.06872(cons'd)      0.01924         *
 * P              15      0.22025(cons'd)     -0.30719(cons'd)     -0.12986         *
 * P              16     -0.16670(cons'd)      0.01854(cons'd)      0.11009         *
 * In              1      0.00193(cons'd)     -0.04636(cons'd)      0.22482         *
 * In              2     -0.01682(cons'd)     -0.00123(cons'd)      0.02686         *
 * In              3     -0.17274(cons'd)      0.13365(cons'd)      0.08352         *
 * In              4      0.15952(cons'd)     -0.00129(cons'd)     -0.05099         *
 * In              5     -0.00235(cons'd)      0.13340(cons'd)      0.17995         *
 * In              6      0.15936(cons'd)     -0.08552(cons'd)      0.01113         *
 * In              7     -0.01678(cons'd)     -0.08559(cons'd)      0.08905         *
 * In              8     -0.17281(cons'd)      0.00754(cons'd)      0.03074         *
 * In              9     -0.13988(cons'd)     -0.04686(cons'd)      0.14112         *
 * In             10     -0.01870(cons'd)      0.13102(cons'd)     -0.04304         *
 * In             11     -0.13981(cons'd)      0.08052(cons'd)      0.18757         *
 * In             12     -0.00234(cons'd)      0.00707(cons'd)      0.12711         *
 * In             13      0.16104(cons'd)      0.12986(cons'd)     -0.13084         *
 * In             14      0.00191(cons'd)      0.08136(cons'd)      0.27132         *
 * In             15      0.16113(cons'd)      0.14013(cons'd)     -0.18987         *
 * In             16     -0.01865(cons'd)      0.14162(cons'd)     -0.10205         *
 *                                                                                  *
 ************************************************************************************
 EXP precond LBFGS => estimated parameter mu :  3.131       eV/A**2
 LBFGS: finished iteration     0 with enthalpy= -3.14327064E+004 eV
  
 +-----------+-----------------+-----------------+------------+-----+ <-- LBFGS
 | Parameter |      value      |    tolerance    |    units   | OK? | <-- LBFGS
 +-----------+-----------------+-----------------+------------+-----+ <-- LBFGS
 |  dE/ion   |   0.000000E+000 |   2.000000E-005 |         eV | No  | <-- LBFGS
 |  |F|max   |   3.996725E-001 |   1.000000E-003 |       eV/A | No  | <-- LBFGS
 |  |dR|max  |   2.659237E-015 |   1.000000E-003 |          A | No  | <-- LBFGS
 +-----------+-----------------+-----------------+------------+-----+ <-- LBFGS
  

================================================================================
 Starting LBFGS iteration          1 ...
================================================================================
  
 +------------+-------------+-------------+-----------------+ <-- min LBFGS
 |    Step    |   lambda    |   F.delta'  |    enthalpy     | <-- min LBFGS
 +------------+-------------+-------------+-----------------+ <-- min LBFGS
 |  previous  |    0.000000 |    0.398874 |   -31432.706381 | <-- min LBFGS
 +------------+-------------+-------------+-----------------+ <-- min LBFGS
  

--------------------------------------------------------------------------------
 LBFGS: starting iteration         1 with trial guess (lambda=  1.000000)
--------------------------------------------------------------------------------

                           -------------------------------
                                     Cell Contents
                           -------------------------------

            xxxxxxxxxxxxxxxxxxxxxxxxxxxxxxxxxxxxxxxxxxxxxxxxxxxxxxxxxxxxxxxxx
            x  Element         Atom        Fractional coordinates of atoms  x
            x                 Number           u          v          w      x
            x---------------------------------------------------------------x
            x  P                 1         0.500000   0.640810   0.378526   x
            x  P                 2         0.250000  -0.041678   0.144483   x
            x  P                 3         0.500000   0.507946   0.839121   x
            x  P                 4         0.500000   0.140810   0.378527   x
            x  P                 5         0.750000   0.323519   0.611802   x
            x  P                 6         0.000000   0.140810   0.378527   x
            x  P                 7         0.250000   0.458322   0.144483   x
            x  P                 8         0.250000   0.323519   0.611802   x
            x  P                 9         0.750000   0.458322   0.144483   x
            x  P                10         0.000000   0.007946   0.839121   x
            x  P                11         0.000000   0.640810   0.378527   x
            x  P                12         0.500000   0.007946   0.839121   x
            x  P                13         0.250000  -0.176481   0.611802   x
            x  P                14         0.750000  -0.176481   0.611802   x
            x  P                15         0.000000   0.507946   0.839121   x
            x  P                16         0.750000  -0.041678   0.144483   x
            x  In                1         0.250000   0.673729   0.264405   x
            x  In                2         0.500000   0.356412   0.497770   x
            x  In                3         0.750000   0.038719   0.732439   x
            x  In                4         0.000000   0.356412   0.497770   x
            x  In                5         0.250000   0.038719   0.732439   x
            x  In                6         0.000000  -0.143588   0.497770   x
            x  In                7         0.500000  -0.143588   0.497770   x
            x  In                8         0.750000   0.538719   0.732439   x
            x  In                9         0.750000   0.673729   0.264405   x
            x  In               10         0.500000   0.490927   0.031453   x
            x  In               11         0.750000   0.173729   0.264405   x
            x  In               12         0.250000   0.538719   0.732439   x
            x  In               13         0.000000   0.490927   0.031453   x
            x  In               14         0.250000   0.173729   0.264405   x
            x  In               15         0.000000  -0.009073   0.031453   x
            x  In               16         0.500000  -0.009073   0.031453   x
            xxxxxxxxxxxxxxxxxxxxxxxxxxxxxxxxxxxxxxxxxxxxxxxxxxxxxxxxxxxxxxxxx


------------------------------------------------------------------------ <-- SCF
SCF loop      Energy           Fermi           Energy gain       Timer   <-- SCF
                               energy          per atom          (sec)   <-- SCF
------------------------------------------------------------------------ <-- SCF
Initial  -3.14307987E+004  0.00000000E+000                      1170.71  <-- SCF
      1  -3.14325058E+004  3.81865957E+000   5.33475741E-002    1207.67  <-- SCF
      2  -3.14327205E+004  3.81856087E+000   6.71019007E-003    1253.52  <-- SCF
      3  -3.14327226E+004  3.82002477E+000   6.47913071E-005    1292.54  <-- SCF
      4  -3.14327241E+004  3.82033515E+000   4.49728020E-005    1332.41  <-- SCF
      5  -3.14327243E+004  3.82007900E+000   6.59257223E-006    1376.85  <-- SCF
      6  -3.14327243E+004  3.81981383E+000   1.52185399E-006    1416.26  <-- SCF
      7  -3.14327243E+004  3.81975429E+000   3.34452348E-008    1451.13  <-- SCF
      8  -3.14327243E+004  3.81964435E+000  -4.87721659E-009    1482.90  <-- SCF
      9  -3.14327243E+004  3.81959718E+000  -1.10015312E-010    1510.32  <-- SCF
------------------------------------------------------------------------ <-- SCF
 
Final energy, E             =  -31432.70894134     eV
Final free energy (E-TS)    =  -31432.72432297     eV
(energies not corrected for finite basis set)
 
NB est. 0K energy (E-0.5TS)      =  -31432.71663216     eV
 

 ******************************** Constrained Forces ********************************
 *                                                                                  *
 *                           Cartesian components (eV/A)                            *
 * -------------------------------------------------------------------------------- *
 *                         x                    y                    z              *
 *                                                                                  *
 * P               1      0.00000(cons'd)      0.00000(cons'd)     -0.03775         *
 * P               2      0.00000(cons'd)      0.00000(cons'd)      0.02059         *
 * P               3      0.00000(cons'd)     -0.00000(cons'd)     -0.30502         *
 * P               4      0.00000(cons'd)      0.00000(cons'd)     -0.03776         *
 * P               5      0.00000(cons'd)      0.00000(cons'd)      0.01558         *
 * P               6      0.00000(cons'd)      0.00000(cons'd)     -0.03773         *
 * P               7      0.00000(cons'd)      0.00000(cons'd)      0.02066         *
 * P               8      0.00000(cons'd)      0.00000(cons'd)      0.01554         *
 * P               9     -0.00000(cons'd)      0.00000(cons'd)      0.02072         *
 * P              10      0.00000(cons'd)      0.00000(cons'd)     -0.30497         *
 * P              11      0.00000(cons'd)      0.00000(cons'd)     -0.03771         *
 * P              12      0.00000(cons'd)     -0.00000(cons'd)     -0.30500         *
 * P              13      0.00000(cons'd)      0.00000(cons'd)      0.01550         *
 * P              14      0.00000(cons'd)      0.00000(cons'd)      0.01555         *
 * P              15      0.00000(cons'd)      0.00000(cons'd)     -0.30499         *
 * P              16      0.00000(cons'd)      0.00000(cons'd)      0.02065         *
 * In              1      0.00000(cons'd)      0.00000(cons'd)      0.06537         *
 * In              2      0.00000(cons'd)      0.00000(cons'd)     -0.00538         *
 * In              3      0.00000(cons'd)      0.00000(cons'd)      0.04375         *
 * In              4     -0.00000(cons'd)      0.00000(cons'd)     -0.00543         *
 * In              5      0.00000(cons'd)      0.00000(cons'd)      0.04383         *
 * In              6     -0.00000(cons'd)      0.00000(cons'd)     -0.00541         *
 * In              7      0.00000(cons'd)      0.00000(cons'd)     -0.00534         *
 * In              8      0.00000(cons'd)      0.00000(cons'd)      0.04371         *
 * In              9      0.00000(cons'd)      0.00000(cons'd)      0.06526         *
 * In             10      0.00000(cons'd)      0.00000(cons'd)      0.20289         *
 * In             11      0.00000(cons'd)      0.00000(cons'd)      0.06529         *
 * In             12      0.00000(cons'd)      0.00000(cons'd)      0.04378         *
 * In             13     -0.00000(cons'd)      0.00000(cons'd)      0.20277         *
 * In             14      0.00000(cons'd)      0.00000(cons'd)      0.06541         *
 * In             15      0.00000(cons'd)      0.00000(cons'd)      0.20277         *
 * In             16      0.00000(cons'd)      0.00000(cons'd)      0.20287         *
 *                                                                                  *
 ************************************************************************************
  
 +------------+-------------+-------------+-----------------+ <-- min LBFGS
 |    Step    |   lambda    |   F.delta'  |    enthalpy     | <-- min LBFGS
 +------------+-------------+-------------+-----------------+ <-- min LBFGS
 |  previous  |    0.000000 |    0.398874 |   -31432.706381 | <-- min LBFGS
 | trial step |    1.000000 |   -0.168247 |   -31432.724323 | <-- min LBFGS
 +------------+-------------+-------------+-----------------+ <-- min LBFGS
  
 LBFGS: finished iteration     1 with enthalpy= -3.14327243E+004 eV
  
 +-----------+-----------------+-----------------+------------+-----+ <-- LBFGS
 | Parameter |      value      |    tolerance    |    units   | OK? | <-- LBFGS
 +-----------+-----------------+-----------------+------------+-----+ <-- LBFGS
 |  dE/ion   |   5.606910E-004 |   2.000000E-005 |         eV | No  | <-- LBFGS
 |  |F|max   |   3.050235E-001 |   1.000000E-003 |       eV/A | No  | <-- LBFGS
 |  |dR|max  |   2.541564E-002 |   1.000000E-003 |          A | No  | <-- LBFGS
 +-----------+-----------------+-----------------+------------+-----+ <-- LBFGS
  

================================================================================
 Starting LBFGS iteration          2 ...
================================================================================
  
 +------------+-------------+-------------+-----------------+ <-- min LBFGS
 |    Step    |   lambda    |   F.delta'  |    enthalpy     | <-- min LBFGS
 +------------+-------------+-------------+-----------------+ <-- min LBFGS
 |  previous  |    0.000000 |    0.261494 |   -31432.724323 | <-- min LBFGS
 +------------+-------------+-------------+-----------------+ <-- min LBFGS
  

--------------------------------------------------------------------------------
 LBFGS: starting iteration         2 with trial guess (lambda=  1.000000)
--------------------------------------------------------------------------------

                           -------------------------------
                                     Cell Contents
                           -------------------------------

            xxxxxxxxxxxxxxxxxxxxxxxxxxxxxxxxxxxxxxxxxxxxxxxxxxxxxxxxxxxxxxxxx
            x  Element         Atom        Fractional coordinates of atoms  x
            x                 Number           u          v          w      x
            x---------------------------------------------------------------x
            x  P                 1         0.500000   0.640818   0.378498   x
            x  P                 2         0.250000  -0.041810   0.144940   x
            x  P                 3         0.500000   0.508244   0.838087   x
            x  P                 4         0.500000   0.140818   0.378498   x
            x  P                 5         0.750000   0.323554   0.611681   x
            x  P                 6         0.000000   0.140818   0.378498   x
            x  P                 7         0.250000   0.458190   0.144941   x
            x  P                 8         0.250000   0.323554   0.611681   x
            x  P                 9         0.750000   0.458190   0.144941   x
            x  P                10         0.000000   0.008244   0.838088   x
            x  P                11         0.000000   0.640818   0.378498   x
            x  P                12         0.500000   0.008244   0.838088   x
            x  P                13         0.250000  -0.176446   0.611681   x
            x  P                14         0.750000  -0.176446   0.611681   x
            x  P                15         0.000000   0.508244   0.838087   x
            x  P                16         0.750000  -0.041810   0.144941   x
            x  In                1         0.250000   0.673555   0.265010   x
            x  In                2         0.500000   0.356418   0.497750   x
            x  In                3         0.750000   0.038769   0.732267   x
            x  In                4        -0.000000   0.356418   0.497750   x
            x  In                5         0.250000   0.038769   0.732267   x
            x  In                6        -0.000000  -0.143582   0.497750   x
            x  In                7         0.500000  -0.143582   0.497750   x
            x  In                8         0.750000   0.538769   0.732267   x
            x  In                9         0.750000   0.673555   0.265009   x
            x  In               10         0.500000   0.490837   0.031766   x
            x  In               11         0.750000   0.173555   0.265009   x
            x  In               12         0.250000   0.538769   0.732267   x
            x  In               13        -0.000000   0.490837   0.031766   x
            x  In               14         0.250000   0.173555   0.265010   x
            x  In               15         0.000000  -0.009163   0.031766   x
            x  In               16         0.500000  -0.009163   0.031766   x
            xxxxxxxxxxxxxxxxxxxxxxxxxxxxxxxxxxxxxxxxxxxxxxxxxxxxxxxxxxxxxxxxx


------------------------------------------------------------------------ <-- SCF
SCF loop      Energy           Fermi           Energy gain       Timer   <-- SCF
                               energy          per atom          (sec)   <-- SCF
------------------------------------------------------------------------ <-- SCF
Initial  -3.14325702E+004  0.00000000E+000                      1537.37  <-- SCF
      1  -3.14327296E+004  3.82591091E+000   4.98107101E-003    1574.52  <-- SCF
      2  -3.14327349E+004  3.82590303E+000   1.66900612E-004    1620.11  <-- SCF
      3  -3.14327345E+004  3.82594741E+000  -1.30268995E-005    1660.12  <-- SCF
      4  -3.14327344E+004  3.82532146E+000  -1.87760058E-006    1700.02  <-- SCF
      5  -3.14327344E+004  3.82505389E+000   1.86173170E-007    1735.95  <-- SCF
      6  -3.14327344E+004  3.82494247E+000  -8.15563420E-009    1768.30  <-- SCF
      7  -3.14327344E+004  3.82489804E+000  -5.90699084E-009    1798.48  <-- SCF
      8  -3.14327344E+004  3.82487434E+000  -2.54446661E-010    1825.48  <-- SCF
------------------------------------------------------------------------ <-- SCF
 
Final energy, E             =  -31432.71670114     eV
Final free energy (E-TS)    =  -31432.73444911     eV
(energies not corrected for finite basis set)
 
NB est. 0K energy (E-0.5TS)      =  -31432.72557512     eV
 

 ******************************** Constrained Forces ********************************
 *                                                                                  *
 *                           Cartesian components (eV/A)                            *
 * -------------------------------------------------------------------------------- *
 *                         x                    y                    z              *
 *                                                                                  *
 * P               1      0.00000(cons'd)      0.00000(cons'd)     -0.00284         *
 * P               2     -0.00000(cons'd)      0.00000(cons'd)     -0.00318         *
 * P               3      0.00000(cons'd)      0.00000(cons'd)     -0.00699         *
 * P               4      0.00000(cons'd)      0.00000(cons'd)     -0.00283         *
 * P               5      0.00000(cons'd)      0.00000(cons'd)      0.00116         *
 * P               6     -0.00000(cons'd)      0.00000(cons'd)     -0.00285         *
 * P               7      0.00000(cons'd)      0.00000(cons'd)     -0.00321         *
 * P               8      0.00000(cons'd)      0.00000(cons'd)      0.00118         *
 * P               9      0.00000(cons'd)      0.00000(cons'd)     -0.00323         *
 * P              10      0.00000(cons'd)      0.00000(cons'd)     -0.00710         *
 * P              11     -0.00000(cons'd)      0.00000(cons'd)     -0.00286         *
 * P              12      0.00000(cons'd)     -0.00000(cons'd)     -0.00703         *
 * P              13      0.00000(cons'd)      0.00000(cons'd)      0.00120         *
 * P              14      0.00000(cons'd)      0.00000(cons'd)      0.00118         *
 * P              15     -0.00000(cons'd)      0.00000(cons'd)     -0.00707         *
 * P              16      0.00000(cons'd)      0.00000(cons'd)     -0.00321         *
 * In              1      0.00000(cons'd)      0.00000(cons'd)      0.01389         *
 * In              2      0.00000(cons'd)      0.00000(cons'd)      0.00209         *
 * In              3      0.00000(cons'd)      0.00000(cons'd)      0.00277         *
 * In              4      0.00000(cons'd)      0.00000(cons'd)      0.00211         *
 * In              5      0.00000(cons'd)      0.00000(cons'd)      0.00274         *
 * In              6      0.00000(cons'd)      0.00000(cons'd)      0.00210         *
 * In              7      0.00000(cons'd)      0.00000(cons'd)      0.00207         *
 * In              8      0.00000(cons'd)      0.00000(cons'd)      0.00278         *
 * In              9     -0.00000(cons'd)      0.00000(cons'd)      0.01393         *
 * In             10      0.00000(cons'd)      0.00000(cons'd)     -0.00690         *
 * In             11      0.00000(cons'd)      0.00000(cons'd)      0.01392         *
 * In             12      0.00000(cons'd)      0.00000(cons'd)      0.00276         *
 * In             13      0.00000(cons'd)      0.00000(cons'd)     -0.00680         *
 * In             14     -0.00000(cons'd)      0.00000(cons'd)      0.01387         *
 * In             15      0.00000(cons'd)      0.00000(cons'd)     -0.00678         *
 * In             16      0.00000(cons'd)     -0.00000(cons'd)     -0.00687         *
 *                                                                                  *
 ************************************************************************************
  
 +------------+-------------+-------------+-----------------+ <-- min LBFGS
 |    Step    |   lambda    |   F.delta'  |    enthalpy     | <-- min LBFGS
 +------------+-------------+-------------+-----------------+ <-- min LBFGS
 |  previous  |    0.000000 |    0.261494 |   -31432.724323 | <-- min LBFGS
 | trial step |    1.000000 |    0.007169 |   -31432.734449 | <-- min LBFGS
 +------------+-------------+-------------+-----------------+ <-- min LBFGS
  
 LBFGS: finished iteration     2 with enthalpy= -3.14327344E+004 eV
  
 +-----------+-----------------+-----------------+------------+-----+ <-- LBFGS
 | Parameter |      value      |    tolerance    |    units   | OK? | <-- LBFGS
 +-----------+-----------------+-----------------+------------+-----+ <-- LBFGS
 |  dE/ion   |   3.164419E-004 |   2.000000E-005 |         eV | No  | <-- LBFGS
 |  |F|max   |   1.393199E-002 |   1.000000E-003 |       eV/A | No  | <-- LBFGS
 |  |dR|max  |   1.219389E-002 |   1.000000E-003 |          A | No  | <-- LBFGS
 +-----------+-----------------+-----------------+------------+-----+ <-- LBFGS
  

================================================================================
 Starting LBFGS iteration          3 ...
================================================================================
  
 +------------+-------------+-------------+-----------------+ <-- min LBFGS
 |    Step    |   lambda    |   F.delta'  |    enthalpy     | <-- min LBFGS
 +------------+-------------+-------------+-----------------+ <-- min LBFGS
 |  previous  |    0.000000 |    0.013716 |   -31432.734449 | <-- min LBFGS
 +------------+-------------+-------------+-----------------+ <-- min LBFGS
  

--------------------------------------------------------------------------------
 LBFGS: starting iteration         3 with trial guess (lambda=  1.000000)
--------------------------------------------------------------------------------

                           -------------------------------
                                     Cell Contents
                           -------------------------------

            xxxxxxxxxxxxxxxxxxxxxxxxxxxxxxxxxxxxxxxxxxxxxxxxxxxxxxxxxxxxxxxxx
            x  Element         Atom        Fractional coordinates of atoms  x
            x                 Number           u          v          w      x
            x---------------------------------------------------------------x
            x  P                 1         0.500000   0.640814   0.378511   x
            x  P                 2         0.250000  -0.041809   0.144937   x
            x  P                 3         0.500000   0.508265   0.838014   x
            x  P                 4         0.500000   0.140814   0.378511   x
            x  P                 5         0.750000   0.323550   0.611695   x
            x  P                 6        -0.000000   0.140814   0.378511   x
            x  P                 7         0.250000   0.458191   0.144937   x
            x  P                 8         0.250000   0.323550   0.611695   x
            x  P                 9         0.750000   0.458191   0.144937   x
            x  P                10         0.000000   0.008265   0.838014   x
            x  P                11        -0.000000   0.640814   0.378511   x
            x  P                12         0.500000   0.008265   0.838014   x
            x  P                13         0.250000  -0.176451   0.611695   x
            x  P                14         0.750000  -0.176451   0.611695   x
            x  P                15         0.000000   0.508265   0.838014   x
            x  P                16         0.750000  -0.041809   0.144937   x
            x  In                1         0.250000   0.673530   0.265098   x
            x  In                2         0.500000   0.356410   0.497778   x
            x  In                3         0.750000   0.038768   0.732270   x
            x  In                4        -0.000000   0.356410   0.497778   x
            x  In                5         0.250000   0.038768   0.732270   x
            x  In                6        -0.000000  -0.143590   0.497778   x
            x  In                7         0.500000  -0.143590   0.497779   x
            x  In                8         0.750000   0.538768   0.732270   x
            x  In                9         0.750000   0.673530   0.265098   x
            x  In               10         0.500000   0.490857   0.031697   x
            x  In               11         0.750000   0.173529   0.265098   x
            x  In               12         0.250000   0.538768   0.732270   x
            x  In               13        -0.000000   0.490857   0.031697   x
            x  In               14         0.250000   0.173529   0.265098   x
            x  In               15         0.000000  -0.009143   0.031697   x
            x  In               16         0.500000  -0.009143   0.031697   x
            xxxxxxxxxxxxxxxxxxxxxxxxxxxxxxxxxxxxxxxxxxxxxxxxxxxxxxxxxxxxxxxxx


------------------------------------------------------------------------ <-- SCF
SCF loop      Energy           Fermi           Energy gain       Timer   <-- SCF
                               energy          per atom          (sec)   <-- SCF
------------------------------------------------------------------------ <-- SCF
Initial  -3.14327100E+004  0.00000000E+000                      1852.53  <-- SCF
      1  -3.14327344E+004  3.82502847E+000   7.62967885E-004    1890.10  <-- SCF
      2  -3.14327345E+004  3.82502842E+000   4.03671333E-006    1935.50  <-- SCF
      3  -3.14327345E+004  3.82512679E+000   5.28943564E-009    1970.77  <-- SCF
      4  -3.14327345E+004  3.82517118E+000   1.03105035E-008    2000.52  <-- SCF
      5  -3.14327345E+004  3.82517259E+000   2.93483729E-009    2027.33  <-- SCF
      6  -3.14327345E+004  3.82517330E+000   6.32636379E-010    2054.15  <-- SCF
------------------------------------------------------------------------ <-- SCF
 
Final energy, E             =  -31432.71693030     eV
Final free energy (E-TS)    =  -31432.73451315     eV
(energies not corrected for finite basis set)
 
NB est. 0K energy (E-0.5TS)      =  -31432.72572173     eV
 

 ******************************** Constrained Forces ********************************
 *                                                                                  *
 *                           Cartesian components (eV/A)                            *
 * -------------------------------------------------------------------------------- *
 *                         x                    y                    z              *
 *                                                                                  *
 * P               1      0.00000(cons'd)      0.00000(cons'd)      0.00214         *
 * P               2      0.00000(cons'd)      0.00000(cons'd)     -0.00270         *
 * P               3     -0.00000(cons'd)     -0.00000(cons'd)     -0.00036         *
 * P               4      0.00000(cons'd)      0.00000(cons'd)      0.00214         *
 * P               5      0.00000(cons'd)      0.00000(cons'd)     -0.00017         *
 * P               6      0.00000(cons'd)      0.00000(cons'd)      0.00214         *
 * P               7      0.00000(cons'd)      0.00000(cons'd)     -0.00271         *
 * P               8      0.00000(cons'd)      0.00000(cons'd)     -0.00016         *
 * P               9      0.00000(cons'd)      0.00000(cons'd)     -0.00272         *
 * P              10      0.00000(cons'd)     -0.00000(cons'd)     -0.00027         *
 * P              11     -0.00000(cons'd)      0.00000(cons'd)      0.00213         *
 * P              12     -0.00000(cons'd)     -0.00000(cons'd)     -0.00033         *
 * P              13      0.00000(cons'd)      0.00000(cons'd)     -0.00016         *
 * P              14      0.00000(cons'd)      0.00000(cons'd)     -0.00016         *
 * P              15      0.00000(cons'd)      0.00000(cons'd)     -0.00030         *
 * P              16     -0.00000(cons'd)      0.00000(cons'd)     -0.00271         *
 * In              1      0.00000(cons'd)      0.00000(cons'd)      0.00165         *
 * In              2      0.00000(cons'd)      0.00000(cons'd)      0.00093         *
 * In              3      0.00000(cons'd)      0.00000(cons'd)     -0.00122         *
 * In              4      0.00000(cons'd)      0.00000(cons'd)      0.00094         *
 * In              5      0.00000(cons'd)     -0.00000(cons'd)     -0.00123         *
 * In              6      0.00000(cons'd)      0.00000(cons'd)      0.00094         *
 * In              7      0.00000(cons'd)     -0.00000(cons'd)      0.00093         *
 * In              8      0.00000(cons'd)      0.00000(cons'd)     -0.00121         *
 * In              9      0.00000(cons'd)      0.00000(cons'd)      0.00167         *
 * In             10      0.00000(cons'd)      0.00000(cons'd)     -0.00028         *
 * In             11      0.00000(cons'd)      0.00000(cons'd)      0.00166         *
 * In             12      0.00000(cons'd)      0.00000(cons'd)     -0.00122         *
 * In             13      0.00000(cons'd)      0.00000(cons'd)     -0.00033         *
 * In             14     -0.00000(cons'd)      0.00000(cons'd)      0.00164         *
 * In             15      0.00000(cons'd)      0.00000(cons'd)     -0.00036         *
 * In             16      0.00000(cons'd)      0.00000(cons'd)     -0.00032         *
 *                                                                                  *
 ************************************************************************************
  
 +------------+-------------+-------------+-----------------+ <-- min LBFGS
 |    Step    |   lambda    |   F.delta'  |    enthalpy     | <-- min LBFGS
 +------------+-------------+-------------+-----------------+ <-- min LBFGS
 |  previous  |    0.000000 |    0.013716 |   -31432.734449 | <-- min LBFGS
 | trial step |    1.000000 |    0.001507 |   -31432.734513 | <-- min LBFGS
 +------------+-------------+-------------+-----------------+ <-- min LBFGS
  
 LBFGS: finished iteration     3 with enthalpy= -3.14327345E+004 eV
  
 +-----------+-----------------+-----------------+------------+-----+ <-- LBFGS
 | Parameter |      value      |    tolerance    |    units   | OK? | <-- LBFGS
 +-----------+-----------------+-----------------+------------+-----+ <-- LBFGS
 |  dE/ion   |   2.001322E-006 |   2.000000E-005 |         eV | Yes | <-- LBFGS
 |  |F|max   |   2.722549E-003 |   1.000000E-003 |       eV/A | No  | <-- LBFGS
 |  |dR|max  |   1.042840E-003 |   1.000000E-003 |          A | No  | <-- LBFGS
 +-----------+-----------------+-----------------+------------+-----+ <-- LBFGS
  

================================================================================
 Starting LBFGS iteration          4 ...
================================================================================
  
 +------------+-------------+-------------+-----------------+ <-- min LBFGS
 |    Step    |   lambda    |   F.delta'  |    enthalpy     | <-- min LBFGS
 +------------+-------------+-------------+-----------------+ <-- min LBFGS
 |  previous  |    0.000000 |    0.003017 |   -31432.734513 | <-- min LBFGS
 +------------+-------------+-------------+-----------------+ <-- min LBFGS
  

--------------------------------------------------------------------------------
 LBFGS: starting iteration         4 with trial guess (lambda=  1.000000)
--------------------------------------------------------------------------------

                           -------------------------------
                                     Cell Contents
                           -------------------------------

            xxxxxxxxxxxxxxxxxxxxxxxxxxxxxxxxxxxxxxxxxxxxxxxxxxxxxxxxxxxxxxxxx
            x  Element         Atom        Fractional coordinates of atoms  x
            x                 Number           u          v          w      x
            x---------------------------------------------------------------x
            x  P                 1         0.500000   0.640809   0.378528   x
            x  P                 2         0.250000  -0.041805   0.144924   x
            x  P                 3         0.500000   0.508269   0.838002   x
            x  P                 4         0.500000   0.140809   0.378528   x
            x  P                 5         0.750000   0.323549   0.611697   x
            x  P                 6        -0.000000   0.140809   0.378528   x
            x  P                 7         0.250000   0.458195   0.144924   x
            x  P                 8         0.250000   0.323549   0.611697   x
            x  P                 9         0.750000   0.458195   0.144924   x
            x  P                10         0.000000   0.008269   0.838002   x
            x  P                11        -0.000000   0.640809   0.378528   x
            x  P                12         0.500000   0.008269   0.838002   x
            x  P                13         0.250000  -0.176451   0.611697   x
            x  P                14         0.750000  -0.176451   0.611697   x
            x  P                15         0.000000   0.508269   0.838002   x
            x  P                16         0.750000  -0.041805   0.144924   x
            x  In                1         0.250000   0.673525   0.265113   x
            x  In                2         0.500000   0.356407   0.497791   x
            x  In                3         0.750000   0.038771   0.732261   x
            x  In                4        -0.000000   0.356407   0.497791   x
            x  In                5         0.250000   0.038771   0.732261   x
            x  In                6        -0.000000  -0.143593   0.497791   x
            x  In                7         0.500000  -0.143593   0.497791   x
            x  In                8         0.750000   0.538771   0.732261   x
            x  In                9         0.750000   0.673525   0.265113   x
            x  In               10         0.500000   0.490860   0.031685   x
            x  In               11         0.750000   0.173525   0.265113   x
            x  In               12         0.250000   0.538771   0.732261   x
            x  In               13        -0.000000   0.490860   0.031685   x
            x  In               14         0.250000   0.173525   0.265113   x
            x  In               15         0.000000  -0.009140   0.031685   x
            x  In               16         0.500000  -0.009140   0.031685   x
            xxxxxxxxxxxxxxxxxxxxxxxxxxxxxxxxxxxxxxxxxxxxxxxxxxxxxxxxxxxxxxxxx


------------------------------------------------------------------------ <-- SCF
SCF loop      Energy           Fermi           Energy gain       Timer   <-- SCF
                               energy          per atom          (sec)   <-- SCF
------------------------------------------------------------------------ <-- SCF
Initial  -3.14327153E+004  0.00000000E+000                      2082.59  <-- SCF
      1  -3.14327345E+004  3.82520211E+000   6.00238916E-004    2120.71  <-- SCF
      2  -3.14327345E+004  3.82520211E+000   1.89619027E-007    2162.60  <-- SCF
      3  -3.14327345E+004  3.82523757E+000   1.25425189E-009    2189.49  <-- SCF
      4  -3.14327345E+004  3.82526550E+000   1.37258119E-009    2216.29  <-- SCF
------------------------------------------------------------------------ <-- SCF
 
Final energy, E             =  -31432.71694554     eV
Final free energy (E-TS)    =  -31432.73451872     eV
(energies not corrected for finite basis set)
 
NB est. 0K energy (E-0.5TS)      =  -31432.72573213     eV
 

 ******************************** Constrained Forces ********************************
 *                                                                                  *
 *                           Cartesian components (eV/A)                            *
 * -------------------------------------------------------------------------------- *
 *                         x                    y                    z              *
 *                                                                                  *
 * P               1      0.00000(cons'd)      0.00000(cons'd)      0.00147         *
 * P               2     -0.00000(cons'd)      0.00000(cons'd)     -0.00110         *
 * P               3      0.00000(cons'd)     -0.00000(cons'd)     -0.00018         *
 * P               4      0.00000(cons'd)      0.00000(cons'd)      0.00147         *
 * P               5      0.00000(cons'd)      0.00000(cons'd)     -0.00022         *
 * P               6      0.00000(cons'd)      0.00000(cons'd)      0.00146         *
 * P               7      0.00000(cons'd)      0.00000(cons'd)     -0.00110         *
 * P               8      0.00000(cons'd)      0.00000(cons'd)     -0.00022         *
 * P               9      0.00000(cons'd)      0.00000(cons'd)     -0.00111         *
 * P              10      0.00000(cons'd)      0.00000(cons'd)     -0.00023         *
 * P              11      0.00000(cons'd)      0.00000(cons'd)      0.00146         *
 * P              12      0.00000(cons'd)      0.00000(cons'd)     -0.00020         *
 * P              13      0.00000(cons'd)      0.00000(cons'd)     -0.00022         *
 * P              14      0.00000(cons'd)      0.00000(cons'd)     -0.00022         *
 * P              15      0.00000(cons'd)     -0.00000(cons'd)     -0.00021         *
 * P              16      0.00000(cons'd)      0.00000(cons'd)     -0.00110         *
 * In              1      0.00000(cons'd)      0.00000(cons'd)      0.00006         *
 * In              2      0.00000(cons'd)      0.00000(cons'd)      0.00027         *
 * In              3      0.00000(cons'd)      0.00000(cons'd)     -0.00020         *
 * In              4     -0.00000(cons'd)      0.00000(cons'd)      0.00027         *
 * In              5      0.00000(cons'd)      0.00000(cons'd)     -0.00021         *
 * In              6     -0.00000(cons'd)     -0.00000(cons'd)      0.00027         *
 * In              7      0.00000(cons'd)      0.00000(cons'd)      0.00027         *
 * In              8      0.00000(cons'd)      0.00000(cons'd)     -0.00019         *
 * In              9     -0.00000(cons'd)      0.00000(cons'd)      0.00006         *
 * In             10      0.00000(cons'd)     -0.00000(cons'd)     -0.00011         *
 * In             11      0.00000(cons'd)      0.00000(cons'd)      0.00006         *
 * In             12      0.00000(cons'd)      0.00000(cons'd)     -0.00020         *
 * In             13     -0.00000(cons'd)      0.00000(cons'd)     -0.00005         *
 * In             14      0.00000(cons'd)      0.00000(cons'd)      0.00006         *
 * In             15      0.00000(cons'd)      0.00000(cons'd)     -0.00002         *
 * In             16      0.00000(cons'd)      0.00000(cons'd)     -0.00007         *
 *                                                                                  *
 ************************************************************************************
  
 +------------+-------------+-------------+-----------------+ <-- min LBFGS
 |    Step    |   lambda    |   F.delta'  |    enthalpy     | <-- min LBFGS
 +------------+-------------+-------------+-----------------+ <-- min LBFGS
 |  previous  |    0.000000 |    0.003017 |   -31432.734513 | <-- min LBFGS
 | trial step |    1.000000 |    0.001162 |   -31432.734519 | <-- min LBFGS
[...]
 * In             12      0.00000(cons'd)      0.00000(cons'd)      0.00013         *
 * In             13      0.00000(cons'd)      0.00000(cons'd)     -0.00011         *
 * In             14      0.00000(cons'd)      0.00000(cons'd)     -0.00084         *
 * In             15      0.00000(cons'd)      0.00000(cons'd)     -0.00004         *
 * In             16      0.00000(cons'd)      0.00000(cons'd)     -0.00014         *
 *                                                                                  *
 ************************************************************************************

 Pseudo atomic calculation performed for P 3s2 3p3

 Converged in 23 iterations to a total energy of -208.0292 eV

 Pseudo atomic calculation performed for In 4d10 5s2 5p1

 Converged in 42 iterations to a total energy of -1747.4500 eV
Charge spilling parameter for spin component 1 = 0.21%

            Orbital Populations       
     Ion    Atom   Orbital             Charge
  -------------------------------------------
      P     1      S                    1.717
      P     1      Px                   1.291
      P     1      Py                   1.348
      P     1      Pz                   1.332
      P     2      S                    1.724
      P     2      Px                   1.282
      P     2      Py                   1.339
      P     2      Pz                   1.347
      P     3      S                    1.683
      P     3      Px                   1.288
      P     3      Py                   1.518
      P     3      Pz                   1.206
      P     4      S                    1.717
      P     4      Px                   1.291
      P     4      Py                   1.348
      P     4      Pz                   1.332
      P     5      S                    1.720
      P     5      Px                   1.285
      P     5      Py                   1.343
      P     5      Pz                   1.331
      P     6      S                    1.717
      P     6      Px                   1.291
      P     6      Py                   1.348
      P     6      Pz                   1.332
      P     7      S                    1.724
      P     7      Px                   1.282
      P     7      Py                   1.339
      P     7      Pz                   1.347
      P     8      S                    1.720
      P     8      Px                   1.285
      P     8      Py                   1.343
      P     8      Pz                   1.331
      P     9      S                    1.724
      P     9      Px                   1.282
      P     9      Py                   1.339
      P     9      Pz                   1.347
      P    10      S                    1.683
      P    10      Px                   1.288
      P    10      Py                   1.518
      P    10      Pz                   1.206
      P    11      S                    1.717
      P    11      Px                   1.291
      P    11      Py                   1.348
      P    11      Pz                   1.332
      P    12      S                    1.683
      P    12      Px                   1.288
      P    12      Py                   1.518
      P    12      Pz                   1.206
      P    13      S                    1.720
      P    13      Px                   1.285
      P    13      Py                   1.343
      P    13      Pz                   1.331
      P    14      S                    1.720
      P    14      Px                   1.285
      P    14      Py                   1.343
      P    14      Pz                   1.331
      P    15      S                    1.683
      P    15      Px                   1.288
      P    15      Py                   1.518
      P    15      Pz                   1.206
      P    16      S                    1.724
      P    16      Px                   1.282
      P    16      Py                   1.339
      P    16      Pz                   1.347
     In     1      Dzz                  1.999
     In     1      Dzy                  1.997
     In     1      Dzx                  1.996
     In     1      Dxx-yy               1.996
     In     1      Dxy                  1.999
     In     1      S                    1.420
     In     1      Px                   0.520
     In     1      Py                   0.477
     In     1      Pz                   0.455
     In     1      S                   -0.567
     In     2      Dzz                  1.999
     In     2      Dzy                  1.997
     In     2      Dzx                  1.996
     In     2      Dxx-yy               1.996
     In     2      Dxy                  1.999
     In     2      S                    1.421
     In     2      Px                   0.523
     In     2      Py                   0.479
     In     2      Pz                   0.463
     In     2      S                   -0.588
     In     3      Dzz                  1.999
     In     3      Dzy                  1.997
     In     3      Dzx                  1.995
     In     3      Dxx-yy               1.995
     In     3      Dxy                  1.999
     In     3      S                    1.471
     In     3      Px                   0.496
     In     3      Py                   0.501
     In     3      Pz                   0.471
     In     3      S                   -0.619
     In     4      Dzz                  1.999
     In     4      Dzy                  1.997
     In     4      Dzx                  1.996
     In     4      Dxx-yy               1.996
     In     4      Dxy                  1.999
     In     4      S                    1.421
     In     4      Px                   0.523
     In     4      Py                   0.479
     In     4      Pz                   0.463
     In     4      S                   -0.588
     In     5      Dzz                  1.999
     In     5      Dzy                  1.997
     In     5      Dzx                  1.995
     In     5      Dxx-yy               1.995
     In     5      Dxy                  1.999
     In     5      S                    1.471
     In     5      Px                   0.496
     In     5      Py                   0.501
     In     5      Pz                   0.471
     In     5      S                   -0.619
     In     6      Dzz                  1.999
     In     6      Dzy                  1.997
     In     6      Dzx                  1.996
     In     6      Dxx-yy               1.996
     In     6      Dxy                  1.999
     In     6      S                    1.421
     In     6      Px                   0.523
     In     6      Py                   0.479
     In     6      Pz                   0.463
     In     6      S                   -0.588
     In     7      Dzz                  1.999
     In     7      Dzy                  1.997
     In     7      Dzx                  1.996
     In     7      Dxx-yy               1.996
     In     7      Dxy                  1.999
     In     7      S                    1.421
     In     7      Px                   0.523
     In     7      Py                   0.479
     In     7      Pz                   0.463
     In     7      S                   -0.588
     In     8      Dzz                  1.999
     In     8      Dzy                  1.997
     In     8      Dzx                  1.995
     In     8      Dxx-yy               1.995
     In     8      Dxy                  1.999
     In     8      S                    1.471
     In     8      Px                   0.496
     In     8      Py                   0.501
     In     8      Pz                   0.471
     In     8      S                   -0.619
     In     9      Dzz                  1.999
     In     9      Dzy                  1.997
     In     9      Dzx                  1.996
     In     9      Dxx-yy               1.996
     In     9      Dxy                  1.999
     In     9      S                    1.420
     In     9      Px                   0.520
     In     9      Py                   0.477
     In     9      Pz                   0.455
     In     9      S                   -0.567
     In    10      Dzz                  1.993
     In    10      Dzy                  1.999
     In    10      Dzx                  1.996
     In    10      Dxx-yy               1.996
     In    10      Dxy                  1.999
     In    10      S                    1.510
     In    10      Px                   0.473
     In    10      Py                   0.485
     In    10      Pz                   0.522
     In    10      S                   -0.607
     In    11      Dzz                  1.999
     In    11      Dzy                  1.997
     In    11      Dzx                  1.996
     In    11      Dxx-yy               1.996
     In    11      Dxy                  1.999
     In    11      S                    1.420
     In    11      Px                   0.520
     In    11      Py                   0.477
     In    11      Pz                   0.455
     In    11      S                   -0.567
     In    12      Dzz                  1.999
     In    12      Dzy                  1.997
     In    12      Dzx                  1.995
     In    12      Dxx-yy               1.995
     In    12      Dxy                  1.999
     In    12      S                    1.471
     In    12      Px                   0.496
     In    12      Py                   0.501
     In    12      Pz                   0.471
     In    12      S                   -0.619
     In    13      Dzz                  1.993
     In    13      Dzy                  1.999
     In    13      Dzx                  1.996
     In    13      Dxx-yy               1.996
     In    13      Dxy                  1.999
     In    13      S                    1.510
     In    13      Px                   0.473
     In    13      Py                   0.485
     In    13      Pz                   0.522
     In    13      S                   -0.607
     In    14      Dzz                  1.999
     In    14      Dzy                  1.997
     In    14      Dzx                  1.996
     In    14      Dxx-yy               1.996
     In    14      Dxy                  1.999
     In    14      S                    1.420
     In    14      Px                   0.520
     In    14      Py                   0.477
     In    14      Pz                   0.455
     In    14      S                   -0.567
     In    15      Dzz                  1.993
     In    15      Dzy                  1.999
     In    15      Dzx                  1.996
     In    15      Dxx-yy               1.996
     In    15      Dxy                  1.999
     In    15      S                    1.510
     In    15      Px                   0.473
     In    15      Py                   0.485
     In    15      Pz                   0.522
     In    15      S                   -0.607
     In    16      Dzz                  1.993
     In    16      Dzy                  1.999
     In    16      Dzx                  1.996
     In    16      Dxx-yy               1.996
     In    16      Dxy                  1.999
     In    16      S                    1.510
     In    16      Px                   0.473
     In    16      Py                   0.485
     In    16      Pz                   0.522
     In    16      S                   -0.607
  -------------------------------------------
                           Total:     288.000
  -------------------------------------------

     Atomic Populations (Mulliken)
     -----------------------------
Species          Ion     s       p       d       f      Total   Charge (e)
==========================================================================
  P               1     1.717   3.970   0.000   0.000   5.687    -0.687
  P               2     1.724   3.968   0.000   0.000   5.693    -0.693
  P               3     1.683   4.012   0.000   0.000   5.695    -0.695
  P               4     1.717   3.970   0.000   0.000   5.687    -0.687
  P               5     1.720   3.959   0.000   0.000   5.679    -0.679
  P               6     1.717   3.970   0.000   0.000   5.687    -0.687
  P               7     1.724   3.968   0.000   0.000   5.693    -0.693
  P               8     1.720   3.959   0.000   0.000   5.679    -0.679
  P               9     1.724   3.968   0.000   0.000   5.693    -0.693
  P              10     1.683   4.012   0.000   0.000   5.695    -0.695
  P              11     1.717   3.970   0.000   0.000   5.687    -0.687
  P              12     1.683   4.012   0.000   0.000   5.695    -0.695
  P              13     1.720   3.959   0.000   0.000   5.679    -0.679
  P              14     1.720   3.959   0.000   0.000   5.679    -0.679
  P              15     1.683   4.012   0.000   0.000   5.695    -0.695
  P              16     1.724   3.968   0.000   0.000   5.693    -0.693
  In              1     0.853   1.452   9.986   0.000  12.291     0.709
  In              2     0.832   1.465   9.986   0.000  12.284     0.716
  In              3     0.852   1.468   9.985   0.000  12.305     0.695
  In              4     0.832   1.465   9.986   0.000  12.284     0.716
  In              5     0.852   1.468   9.985   0.000  12.305     0.695
  In              6     0.832   1.465   9.986   0.000  12.284     0.716
  In              7     0.832   1.465   9.986   0.000  12.284     0.716
  In              8     0.852   1.468   9.985   0.000  12.305     0.695
  In              9     0.853   1.452   9.986   0.000  12.291     0.709
  In             10     0.903   1.480   9.983   0.000  12.366     0.634
  In             11     0.853   1.452   9.986   0.000  12.291     0.709
  In             12     0.852   1.468   9.985   0.000  12.305     0.695
  In             13     0.903   1.480   9.983   0.000  12.366     0.634
  In             14     0.853   1.452   9.986   0.000  12.291     0.709
  In             15     0.903   1.480   9.983   0.000  12.366     0.634
  In             16     0.903   1.480   9.983   0.000  12.366     0.634
==========================================================================

                 Bond                   Population      Length (A)
======================================================================
              P 10 -- In 15                  1.25        2.30838
              P 15 -- In 13                  1.25        2.30839
              P 12 -- In 16                  1.25        2.30839
              P 3  -- In 10                  1.25        2.30839
              P 3  -- In 8                   0.84        2.43117
              P 3  -- In 12                  0.84        2.43117
              P 12 -- In 3                   0.84        2.43117
              P 12 -- In 5                   0.84        2.43117
              P 15 -- In 12                  0.84        2.43117
              P 15 -- In 8                   0.84        2.43117
              P 10 -- In 5                   0.84        2.43117
              P 10 -- In 3                   0.84        2.43117
              P 9  -- In 10                  0.70        2.47777
              P 7  -- In 10                  0.70        2.47777
              P 16 -- In 16                  0.70        2.47777
              P 9  -- In 13                  0.70        2.47777
              P 7  -- In 13                  0.70        2.47777
              P 2  -- In 16                  0.70        2.47777
              P 16 -- In 15                  0.70        2.47777
              P 2  -- In 15                  0.70        2.47777
              P 11 -- In 1                   0.77        2.47891
              P 1  -- In 9                   0.77        2.47891
              P 11 -- In 9                   0.77        2.47891
              P 6  -- In 14                  0.77        2.47891
              P 4  -- In 11                  0.77        2.47891
              P 6  -- In 11                  0.77        2.47891
              P 1  -- In 1                   0.77        2.47891
              P 4  -- In 14                  0.77        2.47891
              P 14 -- In 7                   0.75        2.48199
              P 14 -- In 6                   0.75        2.48199
              P 5  -- In 2                   0.75        2.48199
              P 5  -- In 4                   0.75        2.48199
              P 13 -- In 6                   0.75        2.48199
              P 8  -- In 4                   0.75        2.48199
              P 13 -- In 7                   0.75        2.48199
              P 8  -- In 2                   0.75        2.48199
              P 6  -- In 6                   0.65        2.51681
              P 4  -- In 7                   0.65        2.51681
              P 11 -- In 4                   0.65        2.51681
              P 1  -- In 2                   0.65        2.51681
              P 11 -- In 6                   0.65        2.51681
              P 1  -- In 7                   0.65        2.51681
              P 6  -- In 4                   0.65        2.51681
              P 4  -- In 2                   0.65        2.51681
              P 9  -- In 9                   0.63        2.52309
              P 7  -- In 1                   0.63        2.52309
              P 16 -- In 11                  0.63        2.52309
              P 16 -- In 9                   0.63        2.52309
              P 2  -- In 14                  0.63        2.52309
              P 2  -- In 1                   0.63        2.52309
              P 9  -- In 11                  0.63        2.52309
              P 7  -- In 14                  0.63        2.52309
              P 14 -- In 8                   0.60        2.52541
              P 5  -- In 8                   0.61        2.52541
              P 14 -- In 3                   0.61        2.52541
              P 13 -- In 12                  0.60        2.52541
              P 8  -- In 12                  0.61        2.52541
              P 13 -- In 5                   0.61        2.52541
              P 5  -- In 3                   0.60        2.52542
              P 8  -- In 5                   0.60        2.52542
======================================================================


     Hirshfeld Analysis
     ------------------
Species   Ion     Hirshfeld Charge (e)
======================================
  P        1                -0.24
  P        2                -0.23
  P        3                -0.28
  P        4                -0.24
  P        5                -0.23
  P        6                -0.24
  P        7                -0.23
  P        8                -0.23
  P        9                -0.23
  P       10                -0.28
  P       11                -0.24
  P       12                -0.28
  P       13                -0.23
  P       14                -0.23
  P       15                -0.28
  P       16                -0.23
  In       1                 0.24
  In       2                 0.24
  In       3                 0.25
  In       4                 0.24
  In       5                 0.25
  In       6                 0.24
  In       7                 0.24
  In       8                 0.25
  In       9                 0.24
  In      10                 0.26
  In      11                 0.24
  In      12                 0.25
  In      13                 0.26
  In      14                 0.24
  In      15                 0.26
  In      16                 0.26
======================================

 
 A BibTeX formatted list of references used in this run has been written to 
 StackingFaultStructs_(0_0_1)_(1_1_0)_5.bib
 
Initialisation time =     21.08 s
Calculation time    =   2395.49 s
Finalisation time   =      2.41 s
Total time          =   2418.98 s
Peak Memory Use     = 3416952 kB
 
Overall parallel efficiency rating: Mediocre (52%)
 
Data was distributed by:-
G-vector (4-way); efficiency rating: Mediocre (54%)
k-point (52-way); efficiency rating: Excellent (94%)
