 +-------------------------------------------------+
 |                                                 |
 |      CCC   AA    SSS  TTTTT  EEEEE  PPPP        |
 |     C     A  A  S       T    E      P   P       |
 |     C     AAAA   SS     T    EEE    PPPP        |
 |     C     A  A     S    T    E      P           |
 |      CCC  A  A  SSS     T    EEEEE  P           |
 |                                                 |
 +-------------------------------------------------+
 |                                                 |
 | Welcome to Academic Release CASTEP version 20.11|          
 | Ab Initio Total Energy Program                  |
 |                                                 |
 | Authors:                                        |
 | M. Segall, M. Probert, C. Pickard, P. Hasnip,   |
 | S. Clark, K. Refson, J. R. Yates, M. Payne      |
 |                                                 |
 | Contributors:                                   |
 | P. Lindan, P. Haynes, J. White, V. Milman,      |
 | N. Govind, M. Gibson, P. Tulip, V. Cocula,      |
 | B. Montanari, D. Quigley, M. Glover,            |
 | L. Bernasconi, A. Perlov, M. Plummer,           |
 | E. McNellis, J. Meyer, J. Gale, D. Jochym       |
 | J. Aarons, B. Walker, R. Gillen, D. Jones       |
 | T. Green, I. J. Bush, C. J. Armstrong,          |
 | E. J. Higgins, E. L. Brown, M. S. McFly,        |
 | J. Wilkins, B-C. Shih, P. J. P. Byrne,          |
 | R. J. Maurer, J. C. Womack, J. Dziedzic,        |
 | J. R. Kermode, A. Bartok-Partay                 |
 |                                                 |
 | Copyright (c) 2000 - 2020                       |
 |                                                 |
 |     Distributed under license from Cambridge    |
 |     Enterprise for academic use only.           |
 |                                                 |
 | Please cite                                     |
 |                                                 |
 |     "First principles methods using CASTEP"     |
 |                                                 |
 |         Zeitschrift fuer Kristallographie       |
 |           220(5-6) pp. 567-570 (2005)           |
 |                                                 |
 | S. J. Clark, M. D. Segall, C. J. Pickard,       |
 | P. J. Hasnip, M. J. Probert, K. Refson,         |
 | M. C. Payne                                     |
 |                                                 |
 |       in all publications arising from          |
 |              your use of CASTEP                 |
 |                                                 |
 +-------------------------------------------------+
 |                                                 |
 |              http://www.castep.org              |
 |                                                 |
 +-------------------------------------------------+
 
 
 
 Compiled for linux_x86_64_ifort on Wed, 25 Aug 2021 18:50:38 +0100
 from code version e772bf432+  HEAD  Sat Apr 3 17:41:32 2021 +0100
 Compiler: Intel Fortran 19.0.5.281; Optimisation: fast
 MATHLIBS: Intel MKL(2019.0.5) (LAPACK version 3.7.0)
 FFT Lib : mkl
 Fundamental constants values: CODATA 2014
 
 Run started: Fri, 16 Dec 2022 00:55:02 +0000
 
 Atomic calculation performed for P: 1s2 2s2 2p6 3s2 3p3
 
 Exceeded max iterations: converged to -0.000003405 eV
 The ae energy is -9309.074 eV
 
   ============================================================                
   | Pseudopotential Report - Date of generation 16-12-2022   |                
   ------------------------------------------------------------                
   | Element: P Ionic charge:  5.00 Level of theory: RSCAN    |                
   | Atomic Solver: Koelling-Harmon                           |                
   |                                                          |                
   |               Reference Electronic Structure             |                
   |         Orbital         Occupation         Energy        |                
   |            3s              2.000           -0.535        |                
   |            3p              3.000           -0.209        |                
   |                                                          |                
   |                 Pseudopotential Definition               |                
   |        Beta     l      e      Rc     scheme   norm       |                
   |          1      0   -0.535   1.807     qc      0         |                
   |          2      0    0.250   1.807     qc      0         |                
   |          3      1   -0.209   1.807     qc      0         |                
   |          4      1    0.250   1.807     qc      0         |                
   |          5      2    0.000   1.807     qc      0         |                
   |          6      2    0.250   1.807     qc      0         |                
   |         loc     3    0.000   1.807     pn      0         |                
   |                                                          |                
   | Augmentation charge Rinner = 1.263                       |                
   | Partial core correction Rc = 1.263                       |                
   ------------------------------------------------------------                
   | "3|1.8|4|4|5|30:31:32"                                   |                
   ------------------------------------------------------------                
   |      Author: Chris J. Pickard, Cambridge University      |                
   ============================================================                
 Warning: ion_atom_output_psp cannot write out meta-GGA pseudopotentials present
 ly.
 
 Atomic calculation performed for In:
 1s2 2s2 2p6 3s2 3p6 3d10 4s2 4p6 4d10 5s2 5p1
 
 Exceeded max iterations: converged to -0.000725459 eV
 The ae energy is -160093.321 eV
 
   ============================================================                
   | Pseudopotential Report - Date of generation 16-12-2022   |                
   ------------------------------------------------------------                
   | Element: In Ionic charge: 13.00 Level of theory: RSCAN   |                
   | Atomic Solver: Koelling-Harmon                           |                
   |                                                          |                
   |               Reference Electronic Structure             |                
   |         Orbital         Occupation         Energy        |                
   |            4d             10.000           -0.711        |                
   |            5s              2.000           -0.313        |                
   |            5p              1.000           -0.095        |                
   |                                                          |                
   |                 Pseudopotential Definition               |                
   |        Beta     l      e      Rc     scheme   norm       |                
   |          1      0   -0.313   2.501     qc      0         |                
   |          2      0    0.250   2.501     qc      0         |                
   |          3      1   -0.095   2.501     qc      0         |                
   |          4      1    0.250   2.501     qc      0         |                
   |          5      2   -0.711   2.207     qc      0         |                
   |          6      2    0.250   2.207     qc      0         |                
   |         loc     3    0.000   2.501     pn      0         |                
   |                                                          |                
   | Augmentation charge Rinner = 1.504                       |                
   | Partial core correction Rc = 1.504                       |                
   ------------------------------------------------------------                
   | "3|2.5|2.5|1.5|7|8|9|50:51:42U2.2U2.2"                   |                
   ------------------------------------------------------------                
   |      Author: Chris J. Pickard, Cambridge University      |                
   ============================================================                
 Warning: ion_atom_output_psp cannot write out meta-GGA pseudopotentials present
 ly.
 
 Pseudo atomic calculation performed for P 3s2 3p3
 
 Converged in 23 iterations to a total energy of -208.0292 eV
 
 Pseudo atomic calculation performed for In 4d10 5s2 5p1
 
 Converged in 42 iterations to a total energy of -1747.4504 eV
 Calculation parallelised over 32 processes.
 Data is distributed by k-point(32-way)

 ************************************ Title ************************************
 

 ***************************** General Parameters ******************************
  
 output verbosity                               : normal  (1)
 write checkpoint data to                       : ZB_EOS_1.0296.check
 type of calculation                            : single point energy
 stress calculation                             : on
 density difference calculation                 : off
 electron localisation func (ELF) calculation   : off
 Hirshfeld analysis                             : off
 molecular orbital projected DOS                : off
 deltaSCF calculation                           : off
 unlimited duration calculation
 timing information                             : on
 memory usage estimate                          : on
 write extra output files                       : on
 write final potential to formatted file        : off
 write final density to formatted file          : off
 write BibTeX reference list                    : on
 write OTFG pseudopotential files               : on
 write electrostatic potential file             : on
 write bands file                               : on
 checkpoint writing                             : off
  
 output         length unit                     : A
 output           mass unit                     : amu
 output           time unit                     : ps
 output         charge unit                     : e
 output           spin unit                     : hbar/2
 output         energy unit                     : eV
 output          force unit                     : eV/A
 output       velocity unit                     : A/ps
 output       pressure unit                     : GPa
 output     inv_length unit                     : 1/A
 output      frequency unit                     : cm-1
 output force constant unit                     : eV/A**2
 output         volume unit                     : A**3
 output   IR intensity unit                     : (D/A)**2/amu
 output         dipole unit                     : D
 output         efield unit                     : eV/A/e
 output        entropy unit                     : J/mol/K
 output    efield chi2 unit                     : pm/V
  
 wavefunctions paging                           : none
 random number generator seed                   : randomised (5502586)
 data distribution                              : optimal for this architecture
 optimization strategy                          : balance speed and memory

 *********************** Exchange-Correlation Parameters ***********************
  
 using functional                               : RSCAN
 relativistic treatment                         : Koelling-Harmon
 DFT+D: Semi-empirical dispersion correction    : off

 ************************* Pseudopotential Parameters **************************
  
 pseudopotential representation                 : reciprocal space
 <beta|phi> representation                      : reciprocal space
 spin-orbit coupling                            : off

 **************************** Basis Set Parameters *****************************
  
 plane wave basis set cut-off                   :   900.0000   eV
 size of standard grid                          :     1.7500
 size of   fine   gmax                          :    26.8966   1/A
 finite basis set correction                    : automatic
 number of sample energies                      :          3
           sample  spacing                      :     5.0000   eV

 **************************** Electronic Parameters ****************************
  
 number of  electrons                           :  72.00    
 net charge of system                           :  0.000    
 treating system as non-spin-polarized
 number of bands                                :         43

 ********************* Electronic Minimization Parameters **********************
  
 Method: Treating system as metallic with density mixing treatment of electrons,
         and number of  SD  steps               :          1
         and number of  CG  steps               :          4
  
 total energy / atom convergence tol.           : 0.1000E-07   eV
 eigen-energy convergence tolerance             : 0.2222E-08   eV
 max force / atom convergence tol.              : ignored
 convergence tolerance window                   :          3   cycles
 max. number of SCF cycles                      :         30
 number of fixed-spin iterations                :         10
 smearing scheme                                : Gaussian
 smearing width                                 : 0.2000       eV
 Fermi energy convergence tolerance             : 0.2721E-13   eV
 periodic dipole correction                     : NONE

 ************************** Density Mixing Parameters **************************
  
 density-mixing scheme                          : Broyden
 max. length of mixing history                  :         20
 charge density mixing amplitude                : 0.8000    
 cut-off energy for mixing                      :  900.0       eV

 *********************** Population Analysis Parameters ************************
  
 Population analysis with cutoff                :  3.000       A
 Population analysis output                     : summary and pdos components

 *******************************************************************************
  
 
                           -------------------------------
                                      Unit Cell
                           -------------------------------
        Real Lattice(A)                      Reciprocal Lattice(1/A)
     6.0758580     0.0000000     0.0000000        1.034123132   0.000000000   0.000000000
     0.0000000     6.0758580     0.0000000        0.000000000   1.034123132   0.000000000
     0.0000000     0.0000000     6.0758580        0.000000000   0.000000000   1.034123132
 
                       Lattice parameters(A)       Cell Angles
                    a =      6.075858          alpha =   90.000000
                    b =      6.075858          beta  =   90.000000
                    c =      6.075858          gamma =   90.000000
 
                       Current cell volume =           224.296680       A**3
                                   density =             2.599981   AMU/A**3
                                           =             4.317369     g/cm^3
 
                           -------------------------------
                                     Cell Contents
                           -------------------------------
                         Total number of ions in cell =    8
                      Total number of species in cell =    2
                        Max number of any one species =    4
 
            xxxxxxxxxxxxxxxxxxxxxxxxxxxxxxxxxxxxxxxxxxxxxxxxxxxxxxxxxxxx
            x  Element    Atom        Fractional coordinates of atoms  x
            x            Number           u          v          w      x
            x----------------------------------------------------------x
            x  P            1         0.250000   0.250000   0.750000   x 
            x  P            2         0.750000   0.250000   0.250000   x 
            x  P            3         0.250000   0.750000   0.250000   x 
            x  P            4         0.750000   0.750000   0.750000   x 
            x  In           1         0.000000   0.000000   0.000000   x 
            x  In           2         0.500000   0.000000   0.500000   x 
            x  In           3         0.000000   0.500000   0.500000   x 
            x  In           4         0.500000   0.500000   0.000000   x 
            xxxxxxxxxxxxxxxxxxxxxxxxxxxxxxxxxxxxxxxxxxxxxxxxxxxxxxxxxxxx
 
 
                         No user defined ionic velocities
 
                           -------------------------------
                                   Details of Species
                           -------------------------------
 
                               Mass of species in AMU
                                    P   30.9737600
                                    In  114.8180000
 
                          Electric Quadrupole Moment (Barn)
                                    P    1.0000000 No Isotope Defined
                                    In    0.7700000 Isotope115
 
                          Files used for pseudopotentials:
                                    P 3|1.8|4|4|5|30:31:32
                                    In 3|2.5|2.5|1.5|7|8|9|50:51:42U2.2U2.2
 
                           -------------------------------
                              k-Points For BZ Sampling
                           -------------------------------
                       MP grid size for SCF calculation is  7  7  7
                            with an offset of   0.071  0.071  0.071
                       Number of kpoints used =           172
 
                           -------------------------------
                               Symmetry and Constraints
                           -------------------------------
 
                      Cell is a supercell containing 4 primitive cells
                      Maximum deviation from symmetry =  0.00000         ANG
 
                      Number of symmetry operations   =           1
                      Number of ionic constraints     =           3
                      Point group of crystal =     1: C1, 1, 1
                      Space group of crystal =   216: F-43m, F -4 2 3
 
             Set iprint > 1 for details on symmetry rotations/translations
 
                         Centre of mass is constrained
             Set iprint > 1 for details of linear ionic constraints
 
                         Number of cell constraints= 0
                         Cell constraints are:  1 2 3 4 5 6
 
                         External pressure/stress (GPa)
                          0.00000   0.00000   0.00000
                                    0.00000   0.00000
                                              0.00000
  
+---------------- MEMORY AND SCRATCH DISK ESTIMATES PER PROCESS --------------+
|                                                     Memory          Disk    |
| Baseline code, static data and system overhead      391.0 MB         0.0 MB |
| BLAS internal memory storage                          0.0 MB         0.0 MB |
| Model and support data                              305.2 MB       837.5 MB |
| Electronic energy minimisation requirements         192.7 MB         0.0 MB |
| Force calculation requirements                       22.8 MB         0.0 MB |
| Stress calculation requirements                      25.2 MB         0.0 MB |
|                                               ----------------------------- |
| Approx. total storage required per process          888.9 MB       837.5 MB |
|                                                                             |
| Requirements will fluctuate during execution and may exceed these estimates |
+-----------------------------------------------------------------------------+
Calculating finite basis set correction with  3 cut-off energies.
Calculating total energy with cut-off of  890.000 eV.
------------------------------------------------------------------------ <-- SCF
SCF loop      Energy           Fermi           Energy gain       Timer   <-- SCF
                               energy          per atom          (sec)   <-- SCF
------------------------------------------------------------------------ <-- SCF
Initial  -6.19013671E+003  0.00000000E+000                        23.38  <-- SCF
      1  -7.61351469E+003  3.83526399E+000   1.77922248E+002      72.77  <-- SCF
      2  -7.82412643E+003  2.20646313E+000   2.63264676E+001     105.49  <-- SCF
      3  -7.82948019E+003  1.77059229E+000   6.69219833E-001     140.49  <-- SCF
      4  -7.86008770E+003  2.41433059E+000   3.82593861E+000     180.73  <-- SCF
      5  -7.86011005E+003  2.41340850E+000   2.79369723E-003     222.93  <-- SCF
      6  -7.86113797E+003  2.43349510E+000   1.28490710E-001     262.77  <-- SCF
      7  -7.85920287E+003  2.61222128E+000  -2.41888609E-001     302.93  <-- SCF
      8  -7.85962277E+003  2.66702225E+000   5.24880296E-002     342.41  <-- SCF
      9  -7.85962214E+003  2.67827239E+000  -7.86088636E-005     386.83  <-- SCF
     10  -7.85962333E+003  2.68986129E+000   1.48887922E-004     426.68  <-- SCF
     11  -7.85962340E+003  2.69467639E+000   8.46220879E-006     468.46  <-- SCF
     12  -7.85962341E+003  2.69402778E+000   1.69524856E-006     509.63  <-- SCF
     13  -7.85962341E+003  2.69399744E+000   2.91035936E-008     544.52  <-- SCF
     14  -7.85962341E+003  2.69402921E+000   1.12755060E-008     573.59  <-- SCF
     15  -7.85962341E+003  2.69405522E+000   2.93019692E-009     601.58  <-- SCF
     16  -7.85962341E+003  2.69405762E+000   2.99883565E-010     629.29  <-- SCF
------------------------------------------------------------------------ <-- SCF
 
Final energy, E             =  -7859.623411444     eV
Final free energy (E-TS)    =  -7859.623413141     eV
(energies not corrected for finite basis set)
 
NB est. 0K energy (E-0.5TS)      =  -7859.623412293     eV
 
Calculating total energy with cut-off of  895.000 eV.
------------------------------------------------------------------------ <-- SCF
SCF loop      Energy           Fermi           Energy gain       Timer   <-- SCF
                               energy          per atom          (sec)   <-- SCF
------------------------------------------------------------------------ <-- SCF
Initial  -7.85962341E+003  0.00000000E+000                       642.01  <-- SCF
      1  -7.85962342E+003  2.69405940E+000   1.45657817E-006     679.54  <-- SCF
      2  -7.85962342E+003  2.69405940E+000   5.80045580E-011     707.38  <-- SCF
      3  -7.85962342E+003  2.69405792E+000   4.78344255E-010     735.18  <-- SCF
      4  -7.85962342E+003  2.69405742E+000   3.24825525E-011     763.05  <-- SCF
------------------------------------------------------------------------ <-- SCF
 
Final energy, E             =  -7859.623421404     eV
Final free energy (E-TS)    =  -7859.623423101     eV
(energies not corrected for finite basis set)
 
NB est. 0K energy (E-0.5TS)      =  -7859.623422252     eV
 
Calculating total energy with cut-off of  900.000 eV.
------------------------------------------------------------------------ <-- SCF
SCF loop      Energy           Fermi           Energy gain       Timer   <-- SCF
                               energy          per atom          (sec)   <-- SCF
------------------------------------------------------------------------ <-- SCF
Initial  -7.85962342E+003  0.00000000E+000                       775.78  <-- SCF
      1  -7.85962343E+003  2.69405717E+000   1.20804256E-006     813.44  <-- SCF
      2  -7.85962343E+003  2.69405717E+000   1.08275175E-011     841.02  <-- SCF
      3  -7.85962343E+003  2.69405741E+000   3.60014957E-010     868.89  <-- SCF
      4  -7.85962343E+003  2.69405700E+000   2.82288849E-011     896.45  <-- SCF
------------------------------------------------------------------------ <-- SCF
 
Final energy, E             =  -7859.623429374     eV
Final free energy (E-TS)    =  -7859.623431071     eV
(energies not corrected for finite basis set)
 
NB est. 0K energy (E-0.5TS)      =  -7859.623430222     eV
 
 For future reference: finite basis dEtot/dlog(Ecut) =      -0.001614eV
 Total energy corrected for finite basis set =   -7859.623431 eV
 
 ************************** Forces **************************
 *                                                          *
 *               Cartesian components (eV/A)                *
 * -------------------------------------------------------- *
 *                         x            y            z      *
 *                                                          *
 * P               1      0.00000      0.00000      0.00000 *
 * P               2      0.00000      0.00000      0.00000 *
 * P               3      0.00000      0.00000      0.00000 *
 * P               4      0.00000      0.00000      0.00000 *
 * In              1     -0.00000     -0.00000     -0.00000 *
 * In              2     -0.00000     -0.00000     -0.00000 *
 * In              3     -0.00000     -0.00000     -0.00000 *
 * In              4     -0.00000     -0.00000     -0.00000 *
 *                                                          *
 ************************************************************
 
 ***************** Stress Tensor *****************
 *                                               *
 *          Cartesian components (GPa)           *
 * --------------------------------------------- *
 *             x             y             z     *
 *                                               *
 *  x      4.858284      0.000006      0.000006  *
 *  y      0.000006      4.858284      0.000006  *
 *  z      0.000006      0.000006      4.858284  *
 *                                               *
 *  Pressure:   -4.8583                          *
 *                                               *
 *************************************************
 
 Pseudo atomic calculation performed for P 3s2 3p3
 
 Converged in 23 iterations to a total energy of -208.0292 eV
 
 Pseudo atomic calculation performed for In 4d10 5s2 5p1
 
 Converged in 42 iterations to a total energy of -1747.4504 eV
Charge spilling parameter for spin component 1 = 0.15%
 
            Orbital Populations       
     Ion    Atom   Orbital             Charge
  -------------------------------------------
      P     1      S                    1.761
      P     1      Px                   1.296
      P     1      Py                   1.296
      P     1      Pz                   1.296
      P     2      S                    1.761
      P     2      Px                   1.296
      P     2      Py                   1.296
      P     2      Pz                   1.296
      P     3      S                    1.761
      P     3      Px                   1.296
      P     3      Py                   1.296
      P     3      Pz                   1.296
      P     4      S                    1.761
      P     4      Px                   1.296
      P     4      Py                   1.296
      P     4      Pz                   1.296
     In     1      Dzz                  1.999
     In     1      Dzy                  1.998
     In     1      Dzx                  1.998
     In     1      Dxx-yy               1.999
     In     1      Dxy                  1.998
     In     1      S                    1.417
     In     1      Px                   0.465
     In     1      Py                   0.465
     In     1      Pz                   0.465
     In     1      S                   -0.453
     In     2      Dzz                  1.999
     In     2      Dzy                  1.998
     In     2      Dzx                  1.998
     In     2      Dxx-yy               1.999
     In     2      Dxy                  1.998
     In     2      S                    1.417
     In     2      Px                   0.465
     In     2      Py                   0.465
     In     2      Pz                   0.465
     In     2      S                   -0.453
     In     3      Dzz                  1.999
     In     3      Dzy                  1.998
     In     3      Dzx                  1.998
     In     3      Dxx-yy               1.999
     In     3      Dxy                  1.998
     In     3      S                    1.417
     In     3      Px                   0.465
     In     3      Py                   0.465
     In     3      Pz                   0.465
     In     3      S                   -0.453
     In     4      Dzz                  1.999
     In     4      Dzy                  1.998
     In     4      Dzx                  1.998
     In     4      Dxx-yy               1.999
     In     4      Dxy                  1.998
     In     4      S                    1.417
     In     4      Px                   0.465
     In     4      Py                   0.465
     In     4      Pz                   0.465
     In     4      S                   -0.453
  -------------------------------------------
                           Total:      72.000
  -------------------------------------------
 
     Atomic Populations (Mulliken)
     -----------------------------
Species          Ion     s      p      d      f     Total  Charge (e)
=====================================================================
  P               1     1.76   3.89   0.00   0.00   5.65    -0.65
  P               2     1.76   3.89   0.00   0.00   5.65    -0.65
  P               3     1.76   3.89   0.00   0.00   5.65    -0.65
  P               4     1.76   3.89   0.00   0.00   5.65    -0.65
  In              1     0.96   1.40   9.99   0.00  12.35     0.65
  In              2     0.96   1.40   9.99   0.00  12.35     0.65
  In              3     0.96   1.40   9.99   0.00  12.35     0.65
  In              4     0.96   1.40   9.99   0.00  12.35     0.65
=====================================================================
 
                 Bond                   Population      Length (A)
======================================================================
               P 4 -- In 4                   0.54        2.63092
               P 4 -- In 3                   0.54        2.63092
               P 4 -- In 2                   0.54        2.63092
               P 3 -- In 4                   0.54        2.63092
               P 3 -- In 3                   0.54        2.63092
               P 3 -- In 1                   0.54        2.63092
               P 2 -- In 4                   0.54        2.63092
               P 2 -- In 2                   0.54        2.63092
               P 2 -- In 1                   0.54        2.63092
               P 1 -- In 3                   0.54        2.63092
               P 1 -- In 2                   0.54        2.63092
               P 1 -- In 1                   0.54        2.63092
               P 4 -- In 1                   0.54        2.63092
               P 3 -- In 2                   0.54        2.63092
               P 2 -- In 3                   0.54        2.63092
               P 1 -- In 4                   0.54        2.63092
======================================================================
 
 
 A BibTeX formatted list of references used in this run has been written to 
 ZB_EOS_1.0296.bib
 
Initialisation time =     16.89 s
Calculation time    =   1023.00 s
Finalisation time   =      0.30 s
Total time          =   1040.20 s
Peak Memory Use     = 2069332 kB
  
Overall parallel efficiency rating: Excellent (98%)                             
  
Data was distributed by:-
k-point (32-way); efficiency rating: Excellent (98%)                            
