 +-------------------------------------------------+
 |                                                 |
 |      CCC   AA    SSS  TTTTT  EEEEE  PPPP        |
 |     C     A  A  S       T    E      P   P       |
 |     C     AAAA   SS     T    EEE    PPPP        |
 |     C     A  A     S    T    E      P           |
 |      CCC  A  A  SSS     T    EEEEE  P           |
 |                                                 |
 +-------------------------------------------------+
 |                                                 |
 | Welcome to Academic Release CASTEP version 24.1 |
 | Ab Initio Total Energy Program                  |
 |                                                 |
 | Authors:                                        |
 | M. Segall, M. Probert, C. Pickard, P. Hasnip,   |
 | S. Clark, K. Refson, J. R. Yates,               |
 | A. Bartok-Partay, M. Payne                      |
 |                                                 |
 | Contributors:                                   |
 | P. Lindan, P. Haynes, J. White, V. Milman,      |
 | N. Govind, M. Gibson, P. Tulip, V. Cocula,      |
 | B. Montanari, D. Quigley, M. Glover,            |
 | L. Bernasconi, A. Perlov, M. Plummer,           |
 | E. McNellis, J. Meyer, J. Gale, D. Jochym       |
 | J. Aarons, B. Walker, R. Gillen, D. Jones       |
 | T. Green, I. J. Bush, C. J. Armstrong,          |
 | E. J. Higgins, E. L. Brown, M. S. McFly,        |
 | J. Wilkins, B-C. Shih, P. J. P. Byrne,          |
 | R. J. Maurer, J. C. Womack, J. Dziedzic,        |
 | L. LeBlanc, T. K. Stenczel, J. Kermode,         |
 | S. Sturniolo, B. Shi, B. Durham, M. Evans,      |
 | M. J. Smith, A. Tamerus, Z. Hawkhead,           |
 | V. Ravindran, T. Hollins, S. A. Joyce,          |
 | R. T. Strong, A. M. Reilly, S. J. Donaldson     |
 |                                                 |
 | Copyright (c) 2000 - 2023                       |
 |                                                 |
 |     Distributed under license from Cambridge    |
 |     Enterprise for academic use only.           |
 |                                                 |
 | Please cite                                     |
 |                                                 |
 |     "First principles methods using CASTEP"     |
 |                                                 |
 |         Zeitschrift fuer Kristallographie       |
 |           220(5-6) pp. 567-570 (2005)           |
 |                                                 |
 | S. J. Clark, M. D. Segall, C. J. Pickard,       |
 | P. J. Hasnip, M. J. Probert, K. Refson,         |
 | M. C. Payne                                     |
 |                                                 |
 |       in all publications arising from          |
 |              your use of CASTEP                 |
 |                                                 |
 +-------------------------------------------------+
 |                                                 |
 |              http://www.castep.org              |
 |                                                 |
 +-------------------------------------------------+



 Compiled for  GNU 11.2.0 on 04-04-2024 18:39:17
 from code version 6355fd106 Castep241_branch Thu Mar 7 17:56:19 2024 +0000
 Compiler: GNU Fortran 11.2.0; Optimisation: FAST
 Comms   : MPI VERSION : CRAY MPICH version 8.1.23.14 (ANL base 3.4a2)
 MATHLIBS: default (LAPACK version 3.10.1)
 FFT Lib : fftw3 version commercial-fftw-3.3.10-sse2-avx-avx2-avx2_128
 Fundamental constants values: CODATA 2018

 Run started: Sun, 27 Apr 2025 05:21:16 +0100

 Atomic calculation performed for P: 1s2 2s2 2p6 3s2 3p3

 Converged in 47 iterations to an ae energy of -9309.074 eV

   ============================================================                
   | Pseudopotential Report - Date of generation 27-04-2025   |                
   ------------------------------------------------------------                
   | Element: P Ionic charge:  5.00 Level of theory: RSCAN    |                
   | Atomic Solver: Koelling-Harmon                           |                
   |                                                          |                
   |               Reference Electronic Structure             |                
   |         Orbital         Occupation         Energy        |                
   |            3s              2.000           -0.535        |                
   |            3p              3.000           -0.209        |                
   |                                                          |                
   |                 Pseudopotential Definition               |                
   |        Beta     l      e      Rc     scheme   norm       |                
   |          1      0   -0.535   1.807     qc      0         |                
   |          2      0    0.250   1.807     qc      0         |                
   |          3      1   -0.209   1.807     qc      0         |                
   |          4      1    0.250   1.807     qc      0         |                
   |          5      2    0.000   1.807     qc      0         |                
   |          6      2    0.250   1.807     qc      0         |                
   |         loc     3    0.000   1.807     pn      0         |                
   |                                                          |                
   | Augmentation charge Rinner = 1.263                       |                
   | Partial core correction Rc = 1.263                       |                
   ------------------------------------------------------------                
   | "3|1.8|4|4|5|30:31:32"                                   |                
   ------------------------------------------------------------                
   |      Author: Chris J. Pickard, Cambridge University      |                
   ============================================================                
 Warning: otfg_output_psp cannot write out meta-GGA pseudopotentials presently.

 Atomic calculation performed for In:
 1s2 2s2 2p6 3s2 3p6 3d10 4s2 4p6 4d10 5s2 5p1

 Converged in 84 iterations to an ae energy of -160093.328 eV

   ============================================================                
   | Pseudopotential Report - Date of generation 27-04-2025   |                
   ------------------------------------------------------------                
   | Element: In Ionic charge: 13.00 Level of theory: RSCAN   |                
   | Atomic Solver: Koelling-Harmon                           |                
   |                                                          |                
   |               Reference Electronic Structure             |                
   |         Orbital         Occupation         Energy        |                
   |            4d             10.000           -0.711        |                
   |            5s              2.000           -0.313        |                
   |            5p              1.000           -0.095        |                
   |                                                          |                
   |                 Pseudopotential Definition               |                
   |        Beta     l      e      Rc     scheme   norm       |                
   |          1      0   -0.313   2.501     qc      0         |                
   |          2      0    0.250   2.501     qc      0         |                
   |          3      1   -0.095   2.501     qc      0         |                
   |          4      1    0.250   2.501     qc      0         |                
   |          5      2   -0.711   2.207     qc      0         |                
   |          6      2    0.250   2.207     qc      0         |                
   |         loc     3    0.000   2.501     pn      0         |                
   |                                                          |                
   | Augmentation charge Rinner = 1.504                       |                
   | Partial core correction Rc = 1.504                       |                
   ------------------------------------------------------------                
   | "3|2.5|2.5|1.5|7|8|9|50:51:42U2.2U2.2"                   |                
   ------------------------------------------------------------                
   |      Author: Chris J. Pickard, Cambridge University      |                
   ============================================================                
 Warning: otfg_output_psp cannot write out meta-GGA pseudopotentials presently.

 Pseudo atomic calculation performed for P 3s2 3p3

 Converged in 23 iterations to a total energy of -208.0292 eV

 Pseudo atomic calculation performed for In 4d10 5s2 5p1

 Converged in 42 iterations to a total energy of -1747.4501 eV
 Calculation parallelised over 108 processes.
 Data is distributed by G-vector(3-way) and k-point(36-way)
 Each process may use up to 16 threads.

 ************************************ Title ************************************
 

 ***************************** General Parameters ******************************
  
 output verbosity                               : normal  (1)
 write checkpoint data to                       : P_Vacancy_Migration_0->3_Singlepoints_5.check
 type of calculation                            : single point energy
 stress calculation                             : off
 density difference calculation                 : off
 electron localisation func (ELF) calculation   : off
 Hirshfeld analysis                             : on
 polarisation (Berry phase) analysis            : off
 molecular orbital projected DOS                : off
 deltaSCF calculation                           : off
 unlimited duration calculation
 timing information                             : on
 memory usage estimate                          : on
 write extra output files                       : on
 write final potential to formatted file        : off
 write final density to formatted file          : off
 write BibTeX reference list                    : on
 write OTFG pseudopotential files               : on
 write electrostatic potential file             : on
 write bands file                               : on
 checkpoint writing                             : off
  
 output         length unit                     : A
 output           mass unit                     : amu
 output           time unit                     : ps
 output         charge unit                     : e
 output           spin unit                     : hbar/2
 output         energy unit                     : eV
 output          force unit                     : eV/A
 output       velocity unit                     : A/ps
 output       pressure unit                     : GPa
 output     inv_length unit                     : 1/A
 output      frequency unit                     : cm-1
 output force constant unit                     : eV/A**2
 output         volume unit                     : A**3
 output   IR intensity unit                     : (D/A)**2/amu
 output         dipole unit                     : D
 output         efield unit                     : eV/A/e
 output        entropy unit                     : J/mol/K
 output    efield chi2 unit                     : pm/V
  
 wavefunctions paging                           : none
 random number generator seed                   :   52116433
 data distribution                              : optimal for this architecture
 optimization strategy                          : balance speed and memory

 *********************** Exchange-Correlation Parameters ***********************
  
 using functional                               : RSCAN
 relativistic treatment                         : Koelling-Harmon
 DFT+D: Semi-empirical dispersion correction    : off

 ************************* Pseudopotential Parameters **************************
  
 pseudopotential representation                 : reciprocal space
 <beta|phi> representation                      : reciprocal space
 spin-orbit coupling                            : off

 **************************** Basis Set Parameters *****************************
  
 plane wave basis set cut-off                   :   900.0000   eV
 size of standard grid                          :     2.0000
 size of   fine   gmax                          :    30.7390   1/A
 finite basis set correction                    : none

 **************************** Electronic Parameters ****************************
  
 number of  electrons                           :  571.0    
 net charge of system                           :  0.000    
 net spin   of system                           :  1.000    
 number of  up  spins                           :  286.0    
 number of down spins                           :  285.0    
 treating system as spin-polarized
 number of bands                                :        343

 ********************* Electronic Minimization Parameters **********************
  
 Method: Treating system as metallic with density mixing treatment of electrons,
         and number of  SD  steps               :          1
         and number of  CG  steps               :          4
  
 total energy / atom convergence tol.           : 0.1000E-07   eV
 eigen-energy convergence tolerance             : 0.2203E-08   eV
 max force / atom convergence tol.              : ignored
 convergence tolerance window                   :          3   cycles
 max. number of SCF cycles                      :        100
 number of fixed-spin iterations                :         10
 smearing scheme                                : Gaussian
 smearing width                                 : 0.2000       eV
 Fermi energy convergence tolerance             : 0.2721E-13   eV
 periodic dipole correction                     : NONE

 ************************** Density Mixing Parameters **************************
  
 density-mixing scheme                          : Pulay
 max. length of mixing history                  :         20
 charge density mixing amplitude                : 0.5000    
   spin density mixing amplitude                :  2.000    
 cut-off energy for mixing                      :  900.0       eV

 *********************** Population Analysis Parameters ************************
  
 Population analysis with cutoff                :  3.000       A
 Population analysis output                     : summary and pdos components

 *******************************************************************************
  

                           -------------------------------
                                      Unit Cell
                           -------------------------------
        Real Lattice(A)                      Reciprocal Lattice(1/A)
    11.8016820    -0.0000080    -0.0000080        0.532397442   0.000000361   0.000000361
    -0.0000080    11.8016820    -0.0000080        0.000000361   0.532397442   0.000000361
    -0.0000080    -0.0000080    11.8016820        0.000000361   0.000000361   0.532397442

                       Lattice parameters(A)       Cell Angles
                    a =     11.801682          alpha =   90.000078
                    b =     11.801682          beta  =   90.000078
                    c =     11.801682          gamma =   90.000078

                       Current cell volume =          1643.734705       A**3
                                   density =             2.819410   AMU/A**3
                                           =             4.681741     g/cm^3

                           -------------------------------
                                     Cell Contents
                           -------------------------------
                         Total number of ions in cell =   63
                      Total number of species in cell =    2
                        Max number of any one species =   32

            xxxxxxxxxxxxxxxxxxxxxxxxxxxxxxxxxxxxxxxxxxxxxxxxxxxxxxxxxxxx
            x  Element    Atom        Fractional coordinates of atoms  x
            x            Number           u          v          w      x
            x----------------------------------------------------------x
            x  P            1         0.318498   0.318498   0.348446   x 
            x  P            2         0.375637   0.118878   0.112493   x 
            x  P            3         0.118878   0.375637   0.112493   x 
            x  P            4         0.122282   0.122282   0.874671   x 
            x  P            5         0.378899   0.118211   0.636567   x 
            x  P            6         0.118211   0.378899   0.636567   x 
            x  P            7         0.376868   0.376868   0.873700   x 
            x  P            8         0.124453   0.622710   0.375876   x 
            x  P            9         0.373069   0.619438   0.133515   x 
            x  P           10         0.123715   0.876935   0.131383   x 
            x  P           11         0.371873   0.879661   0.374884   x 
            x  P           12         0.124470   0.630944   0.875770   x 
            x  P           13         0.373924   0.620289   0.618802   x 
            x  P           14         0.122947   0.878418   0.618351   x 
            x  P           15         0.372676   0.865779   0.874760   x 
            x  P           16         0.622710   0.124453   0.375876   x 
            x  P           17         0.876935   0.123715   0.131383   x 
            x  P           18         0.619438   0.373069   0.133515   x 
            x  P           19         0.879661   0.371873   0.374884   x 
            x  P           20         0.630944   0.124470   0.875770   x 
            x  P           21         0.878418   0.122947   0.618351   x 
            x  P           22         0.620289   0.373924   0.618802   x 
            x  P           23         0.865779   0.372676   0.874760   x 
            x  P           24         0.623351   0.623351   0.375386   x 
            x  P           25         0.874181   0.623186   0.123584   x 
            x  P           26         0.623186   0.874181   0.123584   x 
            x  P           27         0.874017   0.874017   0.375320   x 
            x  P           28         0.623027   0.623027   0.876530   x 
            x  P           29         0.873847   0.624463   0.627458   x 
            x  P           30         0.624463   0.873847   0.627458   x 
            x  P           31         0.875141   0.875141   0.875905   x 
            x  In           1        -0.001125  -0.001125   0.003487   x 
            x  In           2         0.247244   0.010885   0.250956   x 
            x  In           3         0.010885   0.247244   0.250956   x 
            x  In           4         0.249939   0.249939  -0.005843   x 
            x  In           5         0.010105   0.010105   0.481335   x 
            x  In           6         0.246418  -0.007325   0.753753   x 
            x  In           7        -0.007325   0.246418   0.753753   x 
            x  In           8         0.251652   0.251652   0.533324   x 
            x  In           9        -0.005677   0.501567  -0.009566   x 
            x  In          10         0.240050   0.491576   0.248771   x 
            x  In          11        -0.002085   0.747704   0.251001   x 
            x  In          12         0.249365   0.748292   0.009735   x 
            x  In          13        -0.001546   0.500397   0.501737   x 
            x  In          14         0.250248   0.505201   0.753766   x 
            x  In          15        -0.000197   0.754143   0.747282   x 
            x  In          16         0.249641   0.750581   0.499166   x 
            x  In          17         0.501567  -0.005677  -0.009566   x 
            x  In          18         0.747704  -0.002085   0.251001   x 
            x  In          19         0.491576   0.240050   0.248771   x 
            x  In          20         0.748292   0.249365   0.009735   x 
            x  In          21         0.500397  -0.001546   0.501737   x 
            x  In          22         0.754143  -0.000197   0.747282   x 
            x  In          23         0.505201   0.250248   0.753766   x 
            x  In          24         0.750581   0.249641   0.499166   x 
            x  In          25         0.499189   0.499189   0.004305   x 
            x  In          26         0.751473   0.498812   0.251970   x 
            x  In          27         0.498812   0.751473   0.251970   x 
            x  In          28         0.749172   0.749172  -0.000330   x 
            x  In          29         0.489758   0.489758   0.487009   x 
            x  In          30         0.744272   0.499048   0.747549   x 
            x  In          31         0.499048   0.744272   0.747549   x 
            x  In          32         0.749360   0.749360   0.502629   x 
            xxxxxxxxxxxxxxxxxxxxxxxxxxxxxxxxxxxxxxxxxxxxxxxxxxxxxxxxxxxx


                         No user defined ionic velocities

                           -------------------------------
                                   Details of Species
                           -------------------------------

                               Mass of species in AMU
                                    P   30.9737600
                                    In  114.8180000

                          Electric Quadrupole Moment (Barn)
                                    P    1.0000000 No Isotope Defined
                                    In    0.7700000 Isotope115

                          Files used for pseudopotentials:
                                    P 3|1.8|4|4|5|30:31:32
                                    In 3|2.5|2.5|1.5|7|8|9|50:51:42U2.2U2.2

                           -------------------------------
                              k-Points For BZ Sampling
                           -------------------------------
                       MP grid size for SCF calculation is  4  4  4
                            with an offset of   0.125  0.125  0.125
                       Number of kpoints used =            36

                           -------------------------------
                               Symmetry and Constraints
                           -------------------------------

                      Maximum deviation from symmetry =  0.00000         ANG

                      Number of symmetry operations   =           1
                      Number of ionic constraints     =           3
                      Point group of crystal =     1: C1, 1, 1
                      Space group of crystal =     8: Cm, C -2y

             Set iprint > 1 for details on symmetry rotations/translations

                         Centre of mass is constrained
             Set iprint > 1 for details of linear ionic constraints

                         Number of cell constraints= 0
                         Cell constraints are:  1 2 3 4 5 6

                         External pressure/stress (GPa)
                          0.00000   0.00000   0.00000
                                    0.00000   0.00000
                                              0.00000
 
+---------------- MEMORY AND SCRATCH DISK ESTIMATES PER PROCESS --------------+
|                                                     Memory          Disk    |
| Baseline code, static data and system overhead      368.0 MB         0.0 MB |
| BLAS internal memory storage                          0.0 MB         0.0 MB |
| Model and support data                             4302.1 MB         0.0 MB |
| Electronic energy minimisation requirements        1320.9 MB         0.0 MB |
| Force calculation requirements                      127.4 MB         0.0 MB |
|                                               ----------------------------- |
| Approx. total storage required per process         5991.0 MB         0.0 MB |
|                                                                             |
| Requirements will fluctuate during execution and may exceed these estimates |
+-----------------------------------------------------------------------------+
Calculating approximate eigenstates for fixed initial Hamiltonian
Cut-off for approx. calculation is   89.988 eV
Improving approx. states at cut-off of  450.000 eV
Resetting cut-off to  900.000 eV
Calculating total energy with cut-off of  900.000 eV.
------------------------------------------------------------------------ <-- SCF
SCF loop      Energy           Fermi           Energy gain       Timer   <-- SCF
                               energy          per atom          (sec)   <-- SCF
------------------------------------------------------------------------ <-- SCF
Initial  -6.28276494E+004  0.00000000E+000                       424.98  <-- SCF
      1  -6.25849721E+004  3.23769279E+000  -3.85201983E+000     876.13  <-- SCF
      2  -6.25852352E+004  3.23728060E+000   4.17645448E-003    1196.25  <-- SCF
      3  -6.26524057E+004  3.32535944E+000   1.06619760E+000    1541.49  <-- SCF
      4  -6.26647157E+004  3.36445887E+000   1.95398009E-001    2035.59  <-- SCF
      5  -6.26720744E+004  3.46666383E+000   1.16803466E-001    2386.12  <-- SCF
      6  -6.26611936E+004  3.65950810E+000  -1.72709857E-001    2729.41  <-- SCF
      7  -6.26599543E+004  3.72088635E+000  -1.96717909E-002    3079.57  <-- SCF
      8  -6.26597843E+004  3.73944613E+000  -2.69892332E-003    3436.48  <-- SCF
      9  -6.26605505E+004  3.73266457E+000   1.21618666E-002    3789.07  <-- SCF
     10  -6.26610555E+004  3.94733761E+000   8.01543288E-003    4140.47  <-- SCF
     11  -6.26611170E+004  3.94944366E+000   9.77242856E-004    4500.92  <-- SCF
     12  -6.26611376E+004  3.94926346E+000   3.27350681E-004    4854.96  <-- SCF
     13  -6.26611466E+004  3.94861445E+000   1.42712084E-004    5217.60  <-- SCF
     14  -6.26611502E+004  3.94833076E+000   5.70896665E-005    5586.40  <-- SCF
     15  -6.26611511E+004  3.94832158E+000   1.38024079E-005    5961.42  <-- SCF
     16  -6.26611522E+004  3.94828483E+000   1.79419456E-005    6322.12  <-- SCF
     17  -6.26611526E+004  3.94841858E+000   5.87720345E-006    6700.60  <-- SCF
     18  -6.26611529E+004  3.94869051E+000   3.95997074E-006    7057.15  <-- SCF
     19  -6.26611529E+004  3.94881144E+000   9.15428948E-007    7412.84  <-- SCF
     20  -6.26611529E+004  3.94881615E+000   1.15309281E-007    7724.57  <-- SCF
     21  -6.26611529E+004  3.94879318E+000   3.65436820E-008    7998.67  <-- SCF
     22  -6.26611529E+004  3.94878525E+000   6.47117268E-009    8243.84  <-- SCF
     23  -6.26611529E+004  3.94877699E+000   2.45207672E-009    8491.54  <-- SCF
------------------------------------------------------------------------ <-- SCF
 
Integrated Spin Density     =   -0.341819E-03 hbar/2
Integrated |Spin Density|   =    0.127272E-02 hbar/2
 
Final energy, E             =  -62661.03239222     eV
Final free energy (E-TS)    =  -62661.15292439     eV
(energies not corrected for finite basis set)
 
NB est. 0K energy (E-0.5TS)      =  -62661.09265831     eV
 

 ************************** Forces **************************
 *                                                          *
 *               Cartesian components (eV/A)                *
 * -------------------------------------------------------- *
 *                         x            y            z      *
 *                                                          *
 * P               1      0.98236      0.98236      0.46304 *
 * P               2     -0.05659      0.05280      0.06591 *
 * P               3      0.05280     -0.05659      0.06591 *
 * P               4     -0.00118     -0.00118      0.01627 *
 * P               5     -0.07991     -0.05871     -0.07093 *
 * P               6     -0.05871     -0.07991     -0.07093 *
 * P               7     -0.01240     -0.01240      0.02052 *
 * P               8     -0.03784      0.01397      0.00006 *
 * P               9     -0.00053      0.04175     -0.05042 *
 * P              10      0.03069     -0.09870     -0.11454 *
 * P              11      0.00679     -0.00676     -0.01169 *
 * P              12     -0.03406     -0.09465     -0.00920 *
 * P              13      0.01459     -0.00971     -0.00241 *
 * P              14     -0.06470     -0.08408      0.08803 *
 * P              15      0.00734      0.00794     -0.00636 *
 * P              16      0.01397     -0.03784      0.00006 *
 * P              17     -0.09870      0.03069     -0.11454 *
 * P              18      0.04175     -0.00053     -0.05042 *
 * P              19     -0.00676      0.00679     -0.01169 *
 * P              20     -0.09465     -0.03406     -0.00920 *
 * P              21     -0.08409     -0.06470      0.08802 *
 * P              22     -0.00971      0.01460     -0.00241 *
 * P              23      0.00794      0.00734     -0.00636 *
 * P              24     -0.10746     -0.10746      0.03756 *
 * P              25     -0.03394     -0.01331     -0.00594 *
 * P              26     -0.01332     -0.03394     -0.00594 *
 * P              27     -0.04044     -0.04044      0.05565 *
 * P              28     -0.01847     -0.01847     -0.00488 *
 * P              29     -0.02096     -0.02347     -0.00192 *
 * P              30     -0.02346     -0.02095     -0.00192 *
 * P              31     -0.02354     -0.02354     -0.01125 *
 * In              1      0.00756      0.00756     -0.01495 *
 * In              2     -0.36570      0.10536      0.14375 *
 * In              3      0.10536     -0.36570      0.14375 *
 * In              4     -0.02690     -0.02690      0.08118 *
 * In              5      0.31284      0.31284     -0.14715 *
 * In              6     -0.06416     -0.02822     -0.00554 *
 * In              7     -0.02822     -0.06415     -0.00554 *
 * In              8     -0.09536     -0.09536     -0.03900 *
 * In              9     -0.01682     -0.00109      0.06722 *
 * In             10     -0.10917      0.17924     -0.08482 *
 * In             11     -0.00744      0.01529     -0.00810 *
 * In             12     -0.03182      0.00867     -0.03023 *
 * In             13     -0.00414     -0.00331     -0.07312 *
 * In             14      0.05383      0.01949      0.03584 *
 * In             15      0.07483      0.02581     -0.02055 *
 * In             16     -0.04778      0.02757     -0.01561 *
 * In             17     -0.00109     -0.01682      0.06722 *
 * In             18      0.01530     -0.00744     -0.00810 *
 * In             19      0.17924     -0.10917     -0.08482 *
 * In             20      0.00867     -0.03182     -0.03023 *
 * In             21     -0.00330     -0.00414     -0.07311 *
 * In             22      0.02580      0.07484     -0.02056 *
 * In             23      0.01948      0.05383      0.03585 *
 * In             24      0.02757     -0.04778     -0.01561 *
 * In             25     -0.01340     -0.01340      0.00222 *
 * In             26      0.00344     -0.03169     -0.04719 *
 * In             27     -0.03169      0.00344     -0.04719 *
 * In             28      0.01778      0.01778      0.03537 *
 * In             29     -0.20037     -0.20038     -0.05415 *
 * In             30     -0.01347     -0.03248     -0.02469 *
 * In             31     -0.03248     -0.01348     -0.02468 *
 * In             32      0.00479      0.00478     -0.07552 *
 *                                                          *
 ************************************************************

 Pseudo atomic calculation performed for P 3s2 3p3

 Converged in 23 iterations to a total energy of -208.0292 eV

 Pseudo atomic calculation performed for In 4d10 5s2 5p1

 Converged in 42 iterations to a total energy of -1747.4501 eV
Charge spilling parameter for spin component 1 = 0.18%
Charge spilling parameter for spin component 2 = 0.18%

                   Orbital Populations                  
  ---------------------------------------------------------------
     Ion    Atom   Orbital              Up        Down      Spin
  ---------------------------------------------------------------
      P     1      S                    0.876     0.876    -0.000
      P     1      Px                   0.650     0.650     0.000
      P     1      Py                   0.650     0.650     0.000
      P     1      Pz                   0.644     0.644    -0.000
      P     2      S                    0.871     0.871    -0.000
      P     2      Px                   0.648     0.648    -0.000
      P     2      Py                   0.663     0.663    -0.000
      P     2      Pz                   0.646     0.646    -0.000
      P     3      S                    0.871     0.871    -0.000
      P     3      Px                   0.663     0.663    -0.000
      P     3      Py                   0.648     0.648    -0.000
      P     3      Pz                   0.646     0.646    -0.000
      P     4      S                    0.867     0.867    -0.000
      P     4      Px                   0.655     0.655     0.000
      P     4      Py                   0.655     0.655     0.000
      P     4      Pz                   0.659     0.659    -0.000
      P     5      S                    0.870     0.870    -0.000
      P     5      Px                   0.648     0.648     0.000
      P     5      Py                   0.655     0.655     0.000
      P     5      Pz                   0.663     0.663    -0.000
      P     6      S                    0.870     0.870    -0.000
      P     6      Px                   0.655     0.655     0.000
      P     6      Py                   0.648     0.648     0.000
      P     6      Pz                   0.663     0.663    -0.000
      P     7      S                    0.868     0.868    -0.000
      P     7      Px                   0.656     0.656     0.000
      P     7      Py                   0.656     0.656     0.000
      P     7      Pz                   0.658     0.658     0.000
      P     8      S                    0.868     0.868    -0.000
      P     8      Px                   0.657     0.657    -0.000
      P     8      Py                   0.656     0.656    -0.000
      P     8      Pz                   0.656     0.656     0.000
      P     9      S                    0.870     0.870    -0.000
      P     9      Px                   0.655     0.655     0.000
      P     9      Py                   0.653     0.653    -0.000
      P     9      Pz                   0.657     0.657    -0.000
      P    10      S                    0.870     0.870    -0.000
      P    10      Px                   0.660     0.660     0.000
      P    10      Py                   0.647     0.647    -0.000
      P    10      Pz                   0.653     0.653    -0.000
      P    11      S                    0.872     0.872    -0.000
      P    11      Px                   0.649     0.649    -0.000
      P    11      Py                   0.646     0.646     0.000
      P    11      Pz                   0.661     0.661     0.000
      P    12      S                    0.871     0.871     0.000
      P    12      Px                   0.656     0.656     0.000
      P    12      Py                   0.653     0.653     0.000
      P    12      Pz                   0.653     0.653    -0.000
      P    13      S                    0.871     0.871     0.000
      P    13      Px                   0.663     0.663    -0.000
      P    13      Py                   0.651     0.651     0.000
      P    13      Pz                   0.648     0.648    -0.000
      P    14      S                    0.873     0.873    -0.000
      P    14      Px                   0.661     0.661    -0.000
      P    14      Py                   0.649     0.649    -0.000
      P    14      Pz                   0.644     0.644    -0.000
      P    15      S                    0.868     0.868    -0.000
      P    15      Px                   0.655     0.655     0.000
      P    15      Py                   0.656     0.656    -0.000
      P    15      Pz                   0.656     0.656    -0.000
      P    16      S                    0.868     0.868    -0.000
      P    16      Px                   0.656     0.656     0.000
      P    16      Py                   0.657     0.657    -0.000
      P    16      Pz                   0.656     0.656     0.000
      P    17      S                    0.870     0.870    -0.000
      P    17      Px                   0.647     0.647    -0.000
      P    17      Py                   0.660     0.660     0.000
      P    17      Pz                   0.653     0.653    -0.000
      P    18      S                    0.870     0.870    -0.000
      P    18      Px                   0.653     0.653    -0.000
      P    18      Py                   0.655     0.655     0.000
      P    18      Pz                   0.657     0.657    -0.000
      P    19      S                    0.872     0.872    -0.000
      P    19      Px                   0.646     0.646     0.000
      P    19      Py                   0.649     0.649    -0.000
      P    19      Pz                   0.661     0.661    -0.000
      P    20      S                    0.871     0.871    -0.000
      P    20      Px                   0.653     0.653     0.000
      P    20      Py                   0.656     0.656    -0.000
      P    20      Pz                   0.653     0.653    -0.000
      P    21      S                    0.873     0.873     0.000
      P    21      Px                   0.649     0.649    -0.000
      P    21      Py                   0.661     0.661    -0.000
      P    21      Pz                   0.644     0.644    -0.000
      P    22      S                    0.871     0.871     0.000
      P    22      Px                   0.651     0.651     0.000
      P    22      Py                   0.663     0.663    -0.000
      P    22      Pz                   0.648     0.648    -0.000
      P    23      S                    0.868     0.868    -0.000
      P    23      Px                   0.656     0.656    -0.000
      P    23      Py                   0.655     0.655     0.000
      P    23      Pz                   0.656     0.656    -0.000
      P    24      S                    0.875     0.875     0.000
      P    24      Px                   0.642     0.642    -0.000
      P    24      Py                   0.642     0.642     0.000
      P    24      Pz                   0.668     0.668    -0.000
      P    25      S                    0.868     0.868    -0.000
      P    25      Px                   0.658     0.658     0.000
      P    25      Py                   0.657     0.657    -0.000
      P    25      Pz                   0.652     0.652     0.000
      P    26      S                    0.868     0.868    -0.000
      P    26      Px                   0.657     0.657     0.000
      P    26      Py                   0.658     0.658     0.000
      P    26      Pz                   0.652     0.652     0.000
      P    27      S                    0.872     0.872    -0.000
      P    27      Px                   0.647     0.647     0.000
      P    27      Py                   0.647     0.647     0.000
      P    27      Pz                   0.664     0.664    -0.000
      P    28      S                    0.868     0.867     0.000
      P    28      Px                   0.658     0.658     0.000
      P    28      Py                   0.658     0.658     0.000
      P    28      Pz                   0.654     0.654     0.000
      P    29      S                    0.868     0.868     0.000
      P    29      Px                   0.655     0.655    -0.000
      P    29      Py                   0.656     0.656    -0.000
      P    29      Pz                   0.659     0.659     0.000
      P    30      S                    0.868     0.868     0.000
      P    30      Px                   0.656     0.656     0.000
      P    30      Py                   0.655     0.655     0.000
      P    30      Pz                   0.659     0.659    -0.000
      P    31      S                    0.868     0.868    -0.000
      P    31      Px                   0.657     0.657    -0.000
      P    31      Py                   0.657     0.657    -0.000
      P    31      Pz                   0.654     0.654     0.000
     In     1      Dzz                  1.000     1.000    -0.000
     In     1      Dzy                  0.998     0.998    -0.000
     In     1      Dzx                  0.998     0.998    -0.000
     In     1      Dxx-yy               1.000     1.000    -0.000
     In     1      Dxy                  0.999     0.999    -0.000
     In     1      S                    0.707     0.707     0.000
     In     1      Px                   0.240     0.240     0.000
     In     1      Py                   0.240     0.240     0.000
     In     1      Pz                   0.239     0.239     0.000
     In     1      S                   -0.247    -0.247     0.000
     In     2      Dzz                  1.000     1.000    -0.000
     In     2      Dzy                  0.999     0.999     0.000
     In     2      Dzx                  0.999     0.999    -0.000
     In     2      Dxx-yy               1.000     1.000     0.000
     In     2      Dxy                  0.999     0.999     0.000
     In     2      S                    0.724     0.724    -0.000
     In     2      Px                   0.243     0.243    -0.000
     In     2      Py                   0.238     0.238    -0.000
     In     2      Pz                   0.236     0.236     0.000
     In     2      S                   -0.234    -0.234    -0.000
     In     3      Dzz                  1.000     1.000    -0.000
     In     3      Dzy                  0.999     0.999    -0.000
     In     3      Dzx                  0.999     0.999     0.000
     In     3      Dxx-yy               1.000     1.000     0.000
     In     3      Dxy                  0.999     0.999     0.000
     In     3      S                    0.724     0.724    -0.000
     In     3      Px                   0.238     0.238    -0.000
     In     3      Py                   0.243     0.243    -0.000
     In     3      Pz                   0.236     0.236     0.000
     In     3      S                   -0.234    -0.234    -0.000
     In     4      Dzz                  1.000     1.000     0.000
     In     4      Dzy                  0.999     0.999     0.000
     In     4      Dzx                  0.999     0.999     0.000
     In     4      Dxx-yy               1.000     1.000     0.000
     In     4      Dxy                  0.998     0.998     0.000
     In     4      S                    0.707     0.707     0.000
     In     4      Px                   0.243     0.243     0.000
     In     4      Py                   0.243     0.243     0.000
     In     4      Pz                   0.232     0.232     0.000
     In     4      S                   -0.251    -0.251    -0.000
     In     5      Dzz                  1.000     1.000     0.000
     In     5      Dzy                  0.999     0.999    -0.000
     In     5      Dzx                  0.999     0.999    -0.000
     In     5      Dxx-yy               1.000     1.000     0.000
     In     5      Dxy                  0.999     0.999     0.000
     In     5      S                    0.734     0.734    -0.000
     In     5      Px                   0.247     0.247    -0.000
     In     5      Py                   0.247     0.247    -0.000
     In     5      Pz                   0.242     0.242    -0.000
     In     5      S                   -0.232    -0.232     0.000
     In     6      Dzz                  1.000     1.000    -0.000
     In     6      Dzy                  0.999     0.999    -0.000
     In     6      Dzx                  0.998     0.998    -0.000
     In     6      Dxx-yy               1.000     1.000     0.000
     In     6      Dxy                  0.998     0.998     0.000
     In     6      S                    0.708     0.708    -0.000
     In     6      Px                   0.241     0.241     0.000
     In     6      Py                   0.240     0.240     0.000
     In     6      Pz                   0.237     0.237     0.000
     In     6      S                   -0.252    -0.252     0.000
     In     7      Dzz                  1.000     1.000    -0.000
     In     7      Dzy                  0.998     0.998    -0.000
     In     7      Dzx                  0.999     0.999    -0.000
     In     7      Dxx-yy               1.000     1.000     0.000
     In     7      Dxy                  0.998     0.998     0.000
     In     7      S                    0.708     0.708    -0.000
     In     7      Px                   0.240     0.240     0.000
     In     7      Py                   0.241     0.241     0.000
     In     7      Pz                   0.237     0.237     0.000
     In     7      S                   -0.252    -0.252     0.000
     In     8      Dzz                  0.999     0.999    -0.000
     In     8      Dzy                  0.999     0.999     0.000
     In     8      Dzx                  0.999     0.999     0.000
     In     8      Dxx-yy               1.000     1.000    -0.000
     In     8      Dxy                  0.998     0.998     0.000
     In     8      S                    0.734     0.734    -0.000
     In     8      Px                   0.233     0.233    -0.000
     In     8      Py                   0.233     0.233     0.000
     In     8      Pz                   0.232     0.232     0.000
     In     8      S                   -0.257    -0.257     0.000
     In     9      Dzz                  1.000     1.000     0.000
     In     9      Dzy                  0.998     0.998    -0.000
     In     9      Dzx                  0.998     0.998    -0.000
     In     9      Dxx-yy               1.000     1.000    -0.000
     In     9      Dxy                  0.998     0.998    -0.000
     In     9      S                    0.714     0.714    -0.000
     In     9      Px                   0.244     0.244    -0.000
     In     9      Py                   0.243     0.243     0.000
     In     9      Pz                   0.238     0.238     0.000
     In     9      S                   -0.252    -0.252    -0.000
     In    10      Dzz                  1.000     1.000    -0.000
     In    10      Dzy                  0.998     0.998    -0.000
     In    10      Dzx                  0.999     0.999    -0.000
     In    10      Dxx-yy               0.999     0.999    -0.000
     In    10      Dxy                  0.998     0.998    -0.000
     In    10      S                    0.706     0.706    -0.000
     In    10      Px                   0.234     0.234     0.000
     In    10      Py                   0.244     0.244    -0.000
     In    10      Pz                   0.244     0.244    -0.000
     In    10      S                   -0.248    -0.248    -0.000
     In    11      Dzz                  1.000     1.000    -0.000
     In    11      Dzy                  0.998     0.998    -0.000
     In    11      Dzx                  0.999     0.999     0.000
     In    11      Dxx-yy               1.000     1.000     0.000
     In    11      Dxy                  0.998     0.998    -0.000
     In    11      S                    0.707     0.707     0.000
     In    11      Px                   0.241     0.241    -0.000
     In    11      Py                   0.240     0.240     0.000
     In    11      Pz                   0.239     0.239     0.000
     In    11      S                   -0.241    -0.241     0.000
     In    12      Dzz                  1.000     1.000     0.000
     In    12      Dzy                  0.999     0.999    -0.000
     In    12      Dzx                  0.998     0.998     0.000
     In    12      Dxx-yy               1.000     1.000    -0.000
     In    12      Dxy                  0.999     0.999    -0.000
     In    12      S                    0.707     0.707    -0.000
     In    12      Px                   0.240     0.240    -0.000
     In    12      Py                   0.238     0.238     0.000
     In    12      Pz                   0.241     0.241     0.000
     In    12      S                   -0.255    -0.255     0.000
     In    13      Dzz                  1.000     1.000    -0.000
     In    13      Dzy                  0.998     0.998    -0.000
     In    13      Dzx                  0.998     0.998    -0.000
     In    13      Dxx-yy               1.000     1.000    -0.000
     In    13      Dxy                  0.999     0.999     0.000
     In    13      S                    0.711     0.711     0.000
     In    13      Px                   0.239     0.239    -0.000
     In    13      Py                   0.240     0.240     0.000
     In    13      Pz                   0.241     0.241    -0.000
     In    13      S                   -0.256    -0.256     0.000
     In    14      Dzz                  1.000     1.000     0.000
     In    14      Dzy                  0.999     0.999     0.000
     In    14      Dzx                  0.998     0.998     0.000
     In    14      Dxx-yy               1.000     1.000     0.000
     In    14      Dxy                  0.998     0.998     0.000
     In    14      S                    0.708     0.708     0.000
     In    14      Px                   0.243     0.243    -0.000
     In    14      Py                   0.240     0.240     0.000
     In    14      Pz                   0.239     0.239    -0.000
     In    14      S                   -0.257    -0.257    -0.000
     In    15      Dzz                  1.000     1.000     0.000
     In    15      Dzy                  0.999     0.999    -0.000
     In    15      Dzx                  0.998     0.998     0.000
     In    15      Dxx-yy               1.000     1.000    -0.000
     In    15      Dxy                  0.999     0.999     0.000
     In    15      S                    0.712     0.712    -0.000
     In    15      Px                   0.242     0.242    -0.000
     In    15      Py                   0.238     0.238    -0.000
     In    15      Pz                   0.240     0.240    -0.000
     In    15      S                   -0.249    -0.249     0.000
     In    16      Dzz                  1.000     1.000     0.000
     In    16      Dzy                  0.998     0.998    -0.000
     In    16      Dzx                  0.999     0.999     0.000
     In    16      Dxx-yy               1.000     1.000     0.000
     In    16      Dxy                  0.998     0.998    -0.000
     In    16      S                    0.710     0.710    -0.000
     In    16      Px                   0.239     0.239    -0.000
     In    16      Py                   0.242     0.242     0.000
     In    16      Pz                   0.240     0.240     0.000
     In    16      S                   -0.242    -0.242    -0.000
     In    17      Dzz                  1.000     1.000     0.000
     In    17      Dzy                  0.998     0.998    -0.000
     In    17      Dzx                  0.998     0.998    -0.000
     In    17      Dxx-yy               1.000     1.000    -0.000
     In    17      Dxy                  0.998     0.998    -0.000
     In    17      S                    0.714     0.714    -0.000
     In    17      Px                   0.243     0.243    -0.000
     In    17      Py                   0.244     0.244    -0.000
     In    17      Pz                   0.238     0.238     0.000
     In    17      S                   -0.252    -0.252    -0.000
     In    18      Dzz                  1.000     1.000     0.000
     In    18      Dzy                  0.999     0.999     0.000
     In    18      Dzx                  0.998     0.998    -0.000
     In    18      Dxx-yy               1.000     1.000     0.000
     In    18      Dxy                  0.998     0.998    -0.000
     In    18      S                    0.707     0.707     0.000
     In    18      Px                   0.240     0.240     0.000
     In    18      Py                   0.241     0.241     0.000
     In    18      Pz                   0.239     0.239     0.000
     In    18      S                   -0.241    -0.241     0.000
     In    19      Dzz                  1.000     1.000    -0.000
     In    19      Dzy                  0.999     0.999    -0.000
     In    19      Dzx                  0.998     0.998    -0.000
     In    19      Dxx-yy               0.999     0.999    -0.000
     In    19      Dxy                  0.998     0.998    -0.000
     In    19      S                    0.706     0.706     0.000
     In    19      Px                   0.244     0.244     0.000
     In    19      Py                   0.234     0.234     0.000
     In    19      Pz                   0.244     0.244    -0.000
     In    19      S                   -0.248    -0.248    -0.000
     In    20      Dzz                  1.000     1.000     0.000
     In    20      Dzy                  0.998     0.998     0.000
     In    20      Dzx                  0.999     0.999    -0.000
     In    20      Dxx-yy               1.000     1.000    -0.000
     In    20      Dxy                  0.999     0.999    -0.000
     In    20      S                    0.707     0.707    -0.000
     In    20      Px                   0.238     0.238     0.000
     In    20      Py                   0.240     0.240    -0.000
     In    20      Pz                   0.241     0.241     0.000
     In    20      S                   -0.255    -0.255     0.000
     In    21      Dzz                  1.000     1.000    -0.000
     In    21      Dzy                  0.998     0.998    -0.000
     In    21      Dzx                  0.998     0.998    -0.000
     In    21      Dxx-yy               1.000     1.000    -0.000
     In    21      Dxy                  0.999     0.999     0.000
     In    21      S                    0.711     0.711     0.000
     In    21      Px                   0.240     0.240     0.000
     In    21      Py                   0.239     0.239    -0.000
     In    21      Pz                   0.241     0.241    -0.000
     In    21      S                   -0.256    -0.256     0.000
     In    22      Dzz                  1.000     1.000     0.000
     In    22      Dzy                  0.998     0.998     0.000
     In    22      Dzx                  0.999     0.999    -0.000
     In    22      Dxx-yy               1.000     1.000    -0.000
     In    22      Dxy                  0.999     0.999     0.000
     In    22      S                    0.712     0.712    -0.000
     In    22      Px                   0.238     0.238     0.000
     In    22      Py                   0.242     0.242    -0.000
     In    22      Pz                   0.240     0.240     0.000
     In    22      S                   -0.249    -0.249    -0.000
     In    23      Dzz                  1.000     1.000     0.000
     In    23      Dzy                  0.998     0.998     0.000
     In    23      Dzx                  0.999     0.999     0.000
     In    23      Dxx-yy               1.000     1.000     0.000
     In    23      Dxy                  0.998     0.998     0.000
     In    23      S                    0.708     0.708     0.000
     In    23      Px                   0.240     0.240     0.000
     In    23      Py                   0.243     0.243    -0.000
     In    23      Pz                   0.239     0.239    -0.000
     In    23      S                   -0.257    -0.257    -0.000
     In    24      Dzz                  1.000     1.000     0.000
     In    24      Dzy                  0.999     0.999     0.000
     In    24      Dzx                  0.998     0.998    -0.000
     In    24      Dxx-yy               1.000     1.000     0.000
     In    24      Dxy                  0.998     0.998    -0.000
     In    24      S                    0.710     0.710    -0.000
     In    24      Px                   0.242     0.242     0.000
     In    24      Py                   0.239     0.239    -0.000
     In    24      Pz                   0.240     0.240     0.000
     In    24      S                   -0.242    -0.242     0.000
     In    25      Dzz                  1.000     1.000    -0.000
     In    25      Dzy                  0.998     0.998     0.000
     In    25      Dzx                  0.998     0.998    -0.000
     In    25      Dxx-yy               1.000     1.000    -0.000
     In    25      Dxy                  0.999     0.999     0.000
     In    25      S                    0.708     0.708    -0.000
     In    25      Px                   0.239     0.239    -0.000
     In    25      Py                   0.239     0.239    -0.000
     In    25      Pz                   0.243     0.243    -0.000
     In    25      S                   -0.248    -0.248     0.000
     In    26      Dzz                  1.000     1.000     0.000
     In    26      Dzy                  0.999     0.999    -0.000
     In    26      Dzx                  0.999     0.999    -0.000
     In    26      Dxx-yy               1.000     1.000     0.000
     In    26      Dxy                  0.999     0.999     0.000
     In    26      S                    0.710     0.710    -0.000
     In    26      Px                   0.241     0.241    -0.000
     In    26      Py                   0.239     0.239    -0.000
     In    26      Pz                   0.238     0.238    -0.000
     In    26      S                   -0.247    -0.247    -0.000
     In    27      Dzz                  1.000     1.000     0.000
     In    27      Dzy                  0.999     0.999     0.000
     In    27      Dzx                  0.999     0.999     0.000
     In    27      Dxx-yy               1.000     1.000     0.000
     In    27      Dxy                  0.999     0.999     0.000
     In    27      S                    0.710     0.710    -0.000
     In    27      Px                   0.239     0.239    -0.000
     In    27      Py                   0.241     0.241    -0.000
     In    27      Pz                   0.238     0.238    -0.000
     In    27      S                   -0.247    -0.247    -0.000
     In    28      Dzz                  1.000     1.000     0.000
     In    28      Dzy                  0.999     0.999     0.000
     In    28      Dzx                  0.999     0.999     0.000
     In    28      Dxx-yy               1.000     1.000    -0.000
     In    28      Dxy                  0.998     0.998    -0.000
     In    28      S                    0.706     0.706     0.000
     In    28      Px                   0.240     0.240    -0.000
     In    28      Py                   0.240     0.240    -0.000
     In    28      Pz                   0.241     0.241    -0.000
     In    28      S                   -0.260    -0.260     0.000
     In    29      Dzz                  1.000     1.000     0.000
     In    29      Dzy                  0.999     0.999    -0.000
     In    29      Dzx                  0.999     0.999    -0.000
     In    29      Dxx-yy               1.000     1.000    -0.000
     In    29      Dxy                  0.999     0.999     0.000
     In    29      S                    0.711     0.710     0.000
     In    29      Px                   0.235     0.235    -0.000
     In    29      Py                   0.235     0.235    -0.000
     In    29      Pz                   0.232     0.232    -0.000
     In    29      S                   -0.232    -0.232     0.000
     In    30      Dzz                  1.000     1.000    -0.000
     In    30      Dzy                  0.998     0.998    -0.000
     In    30      Dzx                  0.999     0.999    -0.000
     In    30      Dxx-yy               1.000     1.000     0.000
     In    30      Dxy                  0.999     0.999    -0.000
     In    30      S                    0.709     0.709     0.000
     In    30      Px                   0.239     0.239    -0.000
     In    30      Py                   0.240     0.240    -0.000
     In    30      Pz                   0.241     0.241    -0.000
     In    30      S                   -0.247    -0.247    -0.000
     In    31      Dzz                  1.000     1.000    -0.000
     In    31      Dzy                  0.999     0.999    -0.000
     In    31      Dzx                  0.998     0.998    -0.000
     In    31      Dxx-yy               1.000     1.000     0.000
     In    31      Dxy                  0.999     0.999    -0.000
     In    31      S                    0.709     0.709     0.000
     In    31      Px                   0.240     0.240    -0.000
     In    31      Py                   0.239     0.239    -0.000
     In    31      Pz                   0.241     0.241    -0.000
     In    31      S                   -0.247    -0.247    -0.000
     In    32      Dzz                  1.000     1.000     0.000
     In    32      Dzy                  0.998     0.998    -0.000
     In    32      Dzx                  0.998     0.998    -0.000
     In    32      Dxx-yy               1.000     1.000    -0.000
     In    32      Dxy                  0.999     0.999    -0.000
     In    32      S                    0.712     0.712     0.000
     In    32      Px                   0.239     0.239    -0.000
     In    32      Py                   0.239     0.239    -0.000
     In    32      Pz                   0.241     0.241    -0.000
     In    32      S                   -0.244    -0.244    -0.000
  ---------------------------------------------------------------
                           Total:     285.500   285.500    -0.001
  ---------------------------------------------------------------

     Atomic Populations (Mulliken)
     -----------------------------
Species          Ion Spin      s       p       d       f      Total   Charge(e)   Spin(hbar/2)
==============================================================================================
  P               1   up:     0.876   1.945   0.000   0.000   2.822    -0.644        0.000
                  1   dn:     0.876   1.945   0.000   0.000   2.822
  P               2   up:     0.871   1.957   0.000   0.000   2.827    -0.655       -0.000
                  2   dn:     0.871   1.957   0.000   0.000   2.827
  P               3   up:     0.871   1.957   0.000   0.000   2.827    -0.655       -0.000
                  3   dn:     0.871   1.957   0.000   0.000   2.827
  P               4   up:     0.867   1.969   0.000   0.000   2.837    -0.673       -0.000
                  4   dn:     0.867   1.969   0.000   0.000   2.837
  P               5   up:     0.870   1.966   0.000   0.000   2.836    -0.671        0.000
                  5   dn:     0.870   1.966   0.000   0.000   2.835
  P               6   up:     0.870   1.966   0.000   0.000   2.836    -0.671        0.000
                  6   dn:     0.870   1.966   0.000   0.000   2.835
  P               7   up:     0.868   1.969   0.000   0.000   2.837    -0.673        0.000
                  7   dn:     0.868   1.969   0.000   0.000   2.836
  P               8   up:     0.868   1.968   0.000   0.000   2.836    -0.672       -0.000
                  8   dn:     0.868   1.968   0.000   0.000   2.836
  P               9   up:     0.870   1.964   0.000   0.000   2.834    -0.667       -0.000
                  9   dn:     0.870   1.964   0.000   0.000   2.834
  P              10   up:     0.870   1.961   0.000   0.000   2.831    -0.662       -0.000
                 10   dn:     0.870   1.961   0.000   0.000   2.831
  P              11   up:     0.872   1.957   0.000   0.000   2.829    -0.658       -0.000
                 11   dn:     0.872   1.957   0.000   0.000   2.829
  P              12   up:     0.871   1.961   0.000   0.000   2.832    -0.664        0.000
                 12   dn:     0.871   1.961   0.000   0.000   2.832
  P              13   up:     0.871   1.961   0.000   0.000   2.832    -0.665       -0.000
                 13   dn:     0.871   1.961   0.000   0.000   2.832
  P              14   up:     0.873   1.955   0.000   0.000   2.827    -0.654       -0.000
                 14   dn:     0.873   1.955   0.000   0.000   2.827
  P              15   up:     0.868   1.967   0.000   0.000   2.835    -0.670       -0.000
                 15   dn:     0.868   1.967   0.000   0.000   2.835
  P              16   up:     0.868   1.968   0.000   0.000   2.836    -0.672        0.000
                 16   dn:     0.868   1.968   0.000   0.000   2.836
  P              17   up:     0.870   1.961   0.000   0.000   2.831    -0.662       -0.000
                 17   dn:     0.870   1.961   0.000   0.000   2.831
  P              18   up:     0.870   1.964   0.000   0.000   2.834    -0.667       -0.000
                 18   dn:     0.870   1.964   0.000   0.000   2.834
  P              19   up:     0.872   1.957   0.000   0.000   2.829    -0.658       -0.000
                 19   dn:     0.872   1.957   0.000   0.000   2.829
  P              20   up:     0.871   1.961   0.000   0.000   2.832    -0.664       -0.000
                 20   dn:     0.871   1.961   0.000   0.000   2.832
  P              21   up:     0.873   1.955   0.000   0.000   2.827    -0.654       -0.000
                 21   dn:     0.873   1.955   0.000   0.000   2.827
  P              22   up:     0.871   1.961   0.000   0.000   2.832    -0.665       -0.000
                 22   dn:     0.871   1.961   0.000   0.000   2.832
  P              23   up:     0.868   1.967   0.000   0.000   2.835    -0.670       -0.000
                 23   dn:     0.868   1.967   0.000   0.000   2.835
  P              24   up:     0.875   1.952   0.000   0.000   2.828    -0.655        0.000
                 24   dn:     0.875   1.952   0.000   0.000   2.828
  P              25   up:     0.868   1.968   0.000   0.000   2.836    -0.671        0.000
                 25   dn:     0.868   1.968   0.000   0.000   2.836
  P              26   up:     0.868   1.968   0.000   0.000   2.836    -0.671        0.000
                 26   dn:     0.868   1.968   0.000   0.000   2.836
  P              27   up:     0.872   1.957   0.000   0.000   2.829    -0.658       -0.000
                 27   dn:     0.872   1.957   0.000   0.000   2.829
  P              28   up:     0.868   1.969   0.000   0.000   2.837    -0.674        0.000
                 28   dn:     0.867   1.969   0.000   0.000   2.837
  P              29   up:     0.868   1.969   0.000   0.000   2.837    -0.673        0.000
                 29   dn:     0.868   1.969   0.000   0.000   2.837
  P              30   up:     0.868   1.969   0.000   0.000   2.837    -0.673        0.000
                 30   dn:     0.868   1.969   0.000   0.000   2.837
  P              31   up:     0.868   1.969   0.000   0.000   2.837    -0.673       -0.000
                 31   dn:     0.868   1.969   0.000   0.000   2.837
  In              1   up:     0.460   0.719   4.995   0.000   6.173     0.653        0.000
                  1   dn:     0.460   0.719   4.995   0.000   6.173
  In              2   up:     0.490   0.717   4.996   0.000   6.203     0.593       -0.000
                  2   dn:     0.491   0.717   4.996   0.000   6.203
  In              3   up:     0.490   0.717   4.996   0.000   6.203     0.593       -0.000
                  3   dn:     0.491   0.717   4.996   0.000   6.203
  In              4   up:     0.456   0.718   4.995   0.000   6.169     0.662        0.000
                  4   dn:     0.456   0.718   4.995   0.000   6.169
  In              5   up:     0.502   0.736   4.996   0.000   6.234     0.532       -0.000
                  5   dn:     0.502   0.736   4.996   0.000   6.234
  In              6   up:     0.457   0.719   4.995   0.000   6.170     0.660        0.000
                  6   dn:     0.456   0.719   4.995   0.000   6.170
  In              7   up:     0.456   0.719   4.995   0.000   6.170     0.660        0.000
                  7   dn:     0.456   0.719   4.995   0.000   6.170
  In              8   up:     0.476   0.699   4.994   0.000   6.169     0.662        0.000
                  8   dn:     0.476   0.699   4.994   0.000   6.169
  In              9   up:     0.462   0.726   4.994   0.000   6.182     0.636       -0.000
                  9   dn:     0.462   0.726   4.994   0.000   6.182
  In             10   up:     0.458   0.722   4.994   0.000   6.174     0.651       -0.000
                 10   dn:     0.458   0.722   4.994   0.000   6.174
  In             11   up:     0.466   0.720   4.995   0.000   6.181     0.638        0.000
                 11   dn:     0.466   0.720   4.995   0.000   6.181
  In             12   up:     0.453   0.718   4.995   0.000   6.166     0.669       -0.000
                 12   dn:     0.453   0.718   4.995   0.000   6.166
  In             13   up:     0.455   0.719   4.995   0.000   6.169     0.661        0.000
                 13   dn:     0.455   0.719   4.995   0.000   6.169
  In             14   up:     0.451   0.722   4.995   0.000   6.167     0.665        0.000
                 14   dn:     0.451   0.722   4.995   0.000   6.167
  In             15   up:     0.463   0.720   4.995   0.000   6.178     0.644       -0.000
                 15   dn:     0.463   0.720   4.995   0.000   6.178
  In             16   up:     0.468   0.720   4.995   0.000   6.183     0.634       -0.000
                 16   dn:     0.468   0.720   4.995   0.000   6.183
  In             17   up:     0.462   0.726   4.994   0.000   6.182     0.636       -0.000
                 17   dn:     0.462   0.726   4.994   0.000   6.182
  In             18   up:     0.466   0.720   4.995   0.000   6.181     0.638        0.000
                 18   dn:     0.466   0.720   4.995   0.000   6.181
  In             19   up:     0.458   0.722   4.994   0.000   6.174     0.651       -0.000
                 19   dn:     0.458   0.722   4.994   0.000   6.174
  In             20   up:     0.453   0.718   4.995   0.000   6.166     0.669       -0.000
                 20   dn:     0.453   0.718   4.995   0.000   6.166
  In             21   up:     0.455   0.719   4.995   0.000   6.169     0.661        0.000
                 21   dn:     0.455   0.719   4.995   0.000   6.169
  In             22   up:     0.463   0.720   4.995   0.000   6.178     0.644       -0.000
                 22   dn:     0.463   0.720   4.995   0.000   6.178
  In             23   up:     0.451   0.722   4.995   0.000   6.167     0.666        0.000
                 23   dn:     0.451   0.722   4.995   0.000   6.167
  In             24   up:     0.468   0.720   4.995   0.000   6.183     0.634       -0.000
                 24   dn:     0.468   0.720   4.995   0.000   6.183
  In             25   up:     0.460   0.721   4.995   0.000   6.175     0.650       -0.000
                 25   dn:     0.460   0.721   4.995   0.000   6.175
  In             26   up:     0.463   0.719   4.995   0.000   6.176     0.648       -0.000
                 26   dn:     0.463   0.719   4.995   0.000   6.176
  In             27   up:     0.463   0.719   4.995   0.000   6.176     0.648       -0.000
                 27   dn:     0.463   0.719   4.995   0.000   6.176
  In             28   up:     0.446   0.721   4.995   0.000   6.161     0.677       -0.000
                 28   dn:     0.446   0.721   4.995   0.000   6.161
  In             29   up:     0.478   0.701   4.996   0.000   6.176     0.649       -0.000
                 29   dn:     0.478   0.701   4.996   0.000   6.176
  In             30   up:     0.461   0.720   4.995   0.000   6.176     0.649       -0.000
                 30   dn:     0.461   0.720   4.995   0.000   6.176
  In             31   up:     0.461   0.720   4.995   0.000   6.176     0.649       -0.000
                 31   dn:     0.461   0.720   4.995   0.000   6.176
  In             32   up:     0.469   0.720   4.995   0.000   6.183     0.634       -0.000
                 32   dn:     0.469   0.720   4.995   0.000   6.183
==============================================================================================

                 Bond                   Population        Spin       Length (A)
================================================================================
              P 1  -- In 8                   0.86        -0.00          2.45057
              P 5  -- In 8                   0.74         0.00          2.49398
              P 6  -- In 8                   0.74         0.00          2.49398
              P 1  -- In 19                  0.65         0.00          2.53243
              P 1  -- In 10                  0.65         0.00          2.53243
              P 3  -- In 9                   0.63        -0.00          2.53861
              P 2  -- In 17                  0.63        -0.00          2.53861
              P 20 -- In 23                  0.68        -0.00          2.54535
              P 12 -- In 14                  0.68        -0.00          2.54535
              P 15 -- In 17                  0.64        -0.00          2.54536
              P 23 -- In 9                   0.64        -0.00          2.54536
              P 21 -- In 24                  0.65         0.00          2.54760
              P 14 -- In 16                  0.65         0.00          2.54760
              P 21 -- In 7                   0.67         0.00          2.54855
              P 14 -- In 6                   0.67         0.00          2.54855
              P 8  -- In 13                  0.67         0.00          2.54974
              P 16 -- In 21                  0.67        -0.00          2.54974
              P 30 -- In 32                  0.66         0.00          2.54978
              P 29 -- In 32                  0.66         0.00          2.54978
              P 15 -- In 6                   0.67         0.00          2.54999
              P 23 -- In 7                   0.67         0.00          2.54999
              P 3  -- In 10                  0.62         0.00          2.55026
              P 2  -- In 19                  0.62         0.00          2.55026
              P 28 -- In 30                  0.66         0.00          2.55056
              P 28 -- In 31                  0.66         0.00          2.55056
              P 16 -- In 19                  0.67        -0.00          2.55076
              P 8  -- In 10                  0.67        -0.00          2.55076
              P 11 -- In 21                  0.66        -0.00          2.55096
              P 19 -- In 13                  0.66        -0.00          2.55096
              P 29 -- In 13                  0.66        -0.00          2.55104
              P 30 -- In 21                  0.66        -0.00          2.55104
              P 31 -- In 22                  0.66         0.00          2.55105
              P 31 -- In 15                  0.66         0.00          2.55105
              P 7  -- In 4                   0.65        -0.00          2.55123
              P 22 -- In 24                  0.64         0.00          2.55133
              P 13 -- In 16                  0.64        -0.00          2.55133
              P 22 -- In 23                  0.66         0.00          2.55190
              P 13 -- In 14                  0.66         0.00          2.55190
              P 27 -- In 18                  0.66         0.00          2.55202
              P 27 -- In 11                  0.66         0.00          2.55202
              P 17 -- In 1                   0.66         0.00          2.55341
              P 10 -- In 1                   0.66        -0.00          2.55341
              P 20 -- In 17                  0.63         0.00          2.55376
              P 12 -- In 9                   0.63        -0.00          2.55376
              P 4  -- In 7                   0.67        -0.00          2.55388
              P 4  -- In 6                   0.67        -0.00          2.55388
              P 17 -- In 18                  0.65         0.00          2.55404
              P 10 -- In 11                  0.65         0.00          2.55404
              P 26 -- In 28                  0.65         0.00          2.55457
              P 25 -- In 28                  0.65         0.00          2.55458
              P 4  -- In 4                   0.65        -0.00          2.55498
              P 7  -- In 14                  0.67         0.00          2.55545
              P 7  -- In 23                  0.67         0.00          2.55545
              P 31 -- In 1                   0.65         0.00          2.55573
              P 15 -- In 31                  0.64         0.00          2.55628
              P 23 -- In 30                  0.64         0.00          2.55628
              P 30 -- In 31                  0.66        -0.00          2.55693
              P 29 -- In 30                  0.66        -0.00          2.55693
              P 25 -- In 9                   0.65        -0.00          2.55729
              P 26 -- In 17                  0.65         0.00          2.55729
              P 3  -- In 4                   0.65         0.00          2.55801
              P 2  -- In 4                   0.65         0.00          2.55801
              P 7  -- In 25                  0.64         0.00          2.55806
              P 28 -- In 28                  0.65        -0.00          2.55823
              P 28 -- In 25                  0.65        -0.00          2.55849
              P 25 -- In 26                  0.66         0.00          2.55880
              P 26 -- In 27                  0.66         0.00          2.55880
              P 29 -- In 15                  0.65         0.00          2.55962
              P 30 -- In 22                  0.65        -0.00          2.55962
              P 5  -- In 6                   0.61         0.00          2.55972
              P 6  -- In 7                   0.61         0.00          2.55972
              P 19 -- In 24                  0.65         0.00          2.55986
              P 11 -- In 16                  0.65         0.00          2.55986
              P 26 -- In 18                  0.65         0.00          2.55991
              P 25 -- In 11                  0.65         0.00          2.55991
              P 4  -- In 1                   0.65        -0.00          2.55996
              P 31 -- In 28                  0.66        -0.00          2.56002
              P 18 -- In 25                  0.65         0.00          2.56021
              P 9  -- In 25                  0.65         0.00          2.56021
              P 5  -- In 23                  0.60         0.00          2.56185
              P 6  -- In 14                  0.60         0.00          2.56185
              P 17 -- In 20                  0.64        -0.00          2.56223
              P 10 -- In 12                  0.64        -0.00          2.56223
              P 24 -- In 27                  0.63        -0.00          2.56280
              P 24 -- In 26                  0.63        -0.00          2.56280
              P 16 -- In 24                  0.65        -0.00          2.56461
              P 8  -- In 16                  0.65        -0.00          2.56461
              P 23 -- In 20                  0.66         0.00          2.56470
              P 15 -- In 12                  0.66         0.00          2.56470
              P 18 -- In 20                  0.65         0.00          2.56473
              P 9  -- In 12                  0.65         0.00          2.56473
              P 12 -- In 15                  0.61         0.00          2.56477
              P 20 -- In 22                  0.61         0.00          2.56477
              P 16 -- In 18                  0.65         0.00          2.56477
              P 8  -- In 11                  0.65         0.00          2.56477
              P 21 -- In 22                  0.63        -0.00          2.56485
              P 14 -- In 15                  0.63        -0.00          2.56485
              P 18 -- In 26                  0.65         0.00          2.56605
              P 9  -- In 27                  0.65         0.00          2.56605
              P 5  -- In 21                  0.63        -0.00          2.56622
              P 6  -- In 13                  0.63        -0.00          2.56622
              P 27 -- In 32                  0.64         0.00          2.56633
              P 20 -- In 20                  0.63         0.00          2.56712
              P 12 -- In 12                  0.63         0.00          2.56712
              P 2  -- In 2                   0.63         0.00          2.56723
              P 3  -- In 3                   0.63         0.00          2.56723
              P 18 -- In 19                  0.66        -0.00          2.56743
              P 9  -- In 10                  0.66        -0.00          2.56743
              P 17 -- In 3                   0.63        -0.00          2.57211
              P 10 -- In 2                   0.63        -0.00          2.57211
              P 13 -- In 31                  0.62        -0.00          2.57492
              P 22 -- In 30                  0.62        -0.00          2.57492
              P 11 -- In 27                  0.62        -0.00          2.57626
              P 19 -- In 26                  0.62        -0.00          2.57626
              P 13 -- In 29                  0.65         0.00          2.58090
              P 22 -- In 29                  0.65         0.00          2.58090
              P 24 -- In 32                  0.60        -0.00          2.58420
              P 19 -- In 3                   0.64         0.00          2.58859
              P 11 -- In 2                   0.64         0.00          2.58859
              P 24 -- In 29                  0.64        -0.00          2.58976
              P 27 -- In 5                   0.61        -0.00          2.59313
              P 21 -- In 5                   0.59         0.00          2.60836
              P 14 -- In 5                   0.59         0.00          2.60836
================================================================================

 Hirshfeld supercell size:           2           2           2
Standard grid dimensions: 240 240 240
Fine grid dimensions:     240 240 240


     Hirshfeld Analysis
     ------------------
Species   Ion     Hirshfeld Charge (e)  Spin (hbar/2)
===================================================
  P        1                -0.25       -0.00
  P        2                -0.24       -0.00
  P        3                -0.24       -0.00
  P        4                -0.24        0.00
  P        5                -0.23        0.00
  P        6                -0.23        0.00
  P        7                -0.24        0.00
  P        8                -0.24       -0.00
  P        9                -0.24       -0.00
  P       10                -0.24        0.00
  P       11                -0.24       -0.00
  P       12                -0.24        0.00
  P       13                -0.24       -0.00
  P       14                -0.24       -0.00
  P       15                -0.24        0.00
  P       16                -0.24       -0.00
  P       17                -0.24        0.00
  P       18                -0.24       -0.00
  P       19                -0.24       -0.00
  P       20                -0.24        0.00
  P       21                -0.24       -0.00
  P       22                -0.24       -0.00
  P       23                -0.24        0.00
  P       24                -0.23       -0.00
  P       25                -0.24       -0.00
  P       26                -0.24       -0.00
  P       27                -0.24       -0.00
  P       28                -0.24       -0.00
  P       29                -0.24       -0.00
  P       30                -0.24       -0.00
  P       31                -0.24        0.00
  In       1                 0.24        0.00
  In       2                 0.19       -0.00
  In       3                 0.19       -0.00
  In       4                 0.24        0.00
  In       5                 0.13       -0.00
  In       6                 0.24        0.00
  In       7                 0.24        0.00
  In       8                 0.26       -0.00
  In       9                 0.23        0.00
  In      10                 0.23       -0.00
  In      11                 0.24       -0.00
  In      12                 0.24        0.00
  In      13                 0.24       -0.00
  In      14                 0.23        0.00
  In      15                 0.24        0.00
  In      16                 0.23       -0.00
  In      17                 0.23        0.00
  In      18                 0.24       -0.00
  In      19                 0.23       -0.00
  In      20                 0.24        0.00
  In      21                 0.24       -0.00
  In      22                 0.24        0.00
  In      23                 0.23        0.00
  In      24                 0.23       -0.00
  In      25                 0.24       -0.00
  In      26                 0.24       -0.00
  In      27                 0.24       -0.00
  In      28                 0.24       -0.00
  In      29                 0.23       -0.00
  In      30                 0.24       -0.00
  In      31                 0.24       -0.00
  In      32                 0.24       -0.00
===================================================

 
 A BibTeX formatted list of references used in this run has been written to 
 P_Vacancy_Migration_0->3_Singlepoints_5.bib
 
Initialisation time =     29.87 s
Calculation time    =   8719.92 s
Finalisation time   =    160.14 s
Total time          =   8909.93 s
Peak Memory Use     = 9609656 kB
 
Overall parallel efficiency rating: Terrible (32%)
 
Data was distributed by:-
G-vector (3-way); efficiency rating: Poor (35%)
k-point (36-way); efficiency rating: Good (78%)
