 +-------------------------------------------------+
 |                                                 |
 |      CCC   AA    SSS  TTTTT  EEEEE  PPPP        |
 |     C     A  A  S       T    E      P   P       |
 |     C     AAAA   SS     T    EEE    PPPP        |
 |     C     A  A     S    T    E      P           |
 |      CCC  A  A  SSS     T    EEEEE  P           |
 |                                                 |
 +-------------------------------------------------+
 |                                                 |
 | Welcome to Academic Release CASTEP version 24.1 |
 | Ab Initio Total Energy Program                  |
 |                                                 |
 | Authors:                                        |
 | M. Segall, M. Probert, C. Pickard, P. Hasnip,   |
 | S. Clark, K. Refson, J. R. Yates,               |
 | A. Bartok-Partay, M. Payne                      |
 |                                                 |
 | Contributors:                                   |
 | P. Lindan, P. Haynes, J. White, V. Milman,      |
 | N. Govind, M. Gibson, P. Tulip, V. Cocula,      |
 | B. Montanari, D. Quigley, M. Glover,            |
 | L. Bernasconi, A. Perlov, M. Plummer,           |
 | E. McNellis, J. Meyer, J. Gale, D. Jochym       |
 | J. Aarons, B. Walker, R. Gillen, D. Jones       |
 | T. Green, I. J. Bush, C. J. Armstrong,          |
 | E. J. Higgins, E. L. Brown, M. S. McFly,        |
 | J. Wilkins, B-C. Shih, P. J. P. Byrne,          |
 | R. J. Maurer, J. C. Womack, J. Dziedzic,        |
 | L. LeBlanc, T. K. Stenczel, J. Kermode,         |
 | S. Sturniolo, B. Shi, B. Durham, M. Evans,      |
 | M. J. Smith, A. Tamerus, Z. Hawkhead,           |
 | V. Ravindran, T. Hollins, S. A. Joyce,          |
 | R. T. Strong, A. M. Reilly, S. J. Donaldson     |
 |                                                 |
 | Copyright (c) 2000 - 2023                       |
 |                                                 |
 |     Distributed under license from Cambridge    |
 |     Enterprise for academic use only.           |
 |                                                 |
 | Please cite                                     |
 |                                                 |
 |     "First principles methods using CASTEP"     |
 |                                                 |
 |         Zeitschrift fuer Kristallographie       |
 |           220(5-6) pp. 567-570 (2005)           |
 |                                                 |
 | S. J. Clark, M. D. Segall, C. J. Pickard,       |
 | P. J. Hasnip, M. J. Probert, K. Refson,         |
 | M. C. Payne                                     |
 |                                                 |
 |       in all publications arising from          |
 |              your use of CASTEP                 |
 |                                                 |
 +-------------------------------------------------+
 |                                                 |
 |              http://www.castep.org              |
 |                                                 |
 +-------------------------------------------------+



 Compiled for  GNU 11.2.0 on 04-04-2024 18:39:17
 from code version 6355fd106 Castep241_branch Thu Mar 7 17:56:19 2024 +0000
 Compiler: GNU Fortran 11.2.0; Optimisation: FAST
 Comms   : MPI VERSION : CRAY MPICH version 8.1.23.14 (ANL base 3.4a2)
 MATHLIBS: default (LAPACK version 3.10.1)
 FFT Lib : fftw3 version commercial-fftw-3.3.10-sse2-avx-avx2-avx2_128
 Fundamental constants values: CODATA 2018

 Run started: Tue, 29 Jul 2025 23:02:03 +0100

 Atomic calculation performed for P: 1s2 2s2 2p6 3s2 3p3

 Converged in 47 iterations to an ae energy of -9309.074 eV

   ============================================================                
   | Pseudopotential Report - Date of generation 29-07-2025   |                
   ------------------------------------------------------------                
   | Element: P Ionic charge:  5.00 Level of theory: RSCAN    |                
   | Atomic Solver: Koelling-Harmon                           |                
   |                                                          |                
   |               Reference Electronic Structure             |                
   |         Orbital         Occupation         Energy        |                
   |            3s              2.000           -0.535        |                
   |            3p              3.000           -0.209        |                
   |                                                          |                
   |                 Pseudopotential Definition               |                
   |        Beta     l      e      Rc     scheme   norm       |                
   |          1      0   -0.535   1.807     qc      0         |                
   |          2      0    0.250   1.807     qc      0         |                
   |          3      1   -0.209   1.807     qc      0         |                
   |          4      1    0.250   1.807     qc      0         |                
   |          5      2    0.000   1.807     qc      0         |                
   |          6      2    0.250   1.807     qc      0         |                
   |         loc     3    0.000   1.807     pn      0         |                
   |                                                          |                
   | Augmentation charge Rinner = 1.263                       |                
   | Partial core correction Rc = 1.263                       |                
   ------------------------------------------------------------                
   | "3|1.8|4|4|5|30:31:32"                                   |                
   ------------------------------------------------------------                
   |      Author: Chris J. Pickard, Cambridge University      |                
   ============================================================                
 Warning: otfg_output_psp cannot write out meta-GGA pseudopotentials presently.

 Atomic calculation performed for In:
 1s2 2s2 2p6 3s2 3p6 3d10 4s2 4p6 4d10 5s2 5p1

 Converged in 84 iterations to an ae energy of -160093.328 eV

   ============================================================                
   | Pseudopotential Report - Date of generation 29-07-2025   |                
   ------------------------------------------------------------                
   | Element: In Ionic charge: 13.00 Level of theory: RSCAN   |                
   | Atomic Solver: Koelling-Harmon                           |                
   |                                                          |                
   |               Reference Electronic Structure             |                
   |         Orbital         Occupation         Energy        |                
   |            4d             10.000           -0.711        |                
   |            5s              2.000           -0.313        |                
   |            5p              1.000           -0.095        |                
   |                                                          |                
   |                 Pseudopotential Definition               |                
   |        Beta     l      e      Rc     scheme   norm       |                
   |          1      0   -0.313   2.501     qc      0         |                
   |          2      0    0.250   2.501     qc      0         |                
   |          3      1   -0.095   2.501     qc      0         |                
   |          4      1    0.250   2.501     qc      0         |                
   |          5      2   -0.711   2.207     qc      0         |                
   |          6      2    0.250   2.207     qc      0         |                
   |         loc     3    0.000   2.501     pn      0         |                
   |                                                          |                
   | Augmentation charge Rinner = 1.504                       |                
   | Partial core correction Rc = 1.504                       |                
   ------------------------------------------------------------                
   | "3|2.5|2.5|1.5|7|8|9|50:51:42U2.2U2.2"                   |                
   ------------------------------------------------------------                
   |      Author: Chris J. Pickard, Cambridge University      |                
   ============================================================                
 Warning: otfg_output_psp cannot write out meta-GGA pseudopotentials presently.

 Pseudo atomic calculation performed for P 3s2 3p3

 Converged in 23 iterations to a total energy of -208.0292 eV

 Pseudo atomic calculation performed for In 4d10 5s2 5p1

 Converged in 42 iterations to a total energy of -1747.4501 eV
 Calculation parallelised over 108 processes.
 Data is distributed by G-vector(3-way) and k-point(36-way)
 Each process may use up to 16 threads.

 ************************************ Title ************************************
 

 ***************************** General Parameters ******************************
  
 output verbosity                               : normal  (1)
 write checkpoint data to                       : P_Vacancy_Migration_0->3_Singlepoints_5.check
 type of calculation                            : single point energy
 stress calculation                             : off
 density difference calculation                 : off
 electron localisation func (ELF) calculation   : off
 Hirshfeld analysis                             : on
 polarisation (Berry phase) analysis            : off
 molecular orbital projected DOS                : off
 deltaSCF calculation                           : off
 unlimited duration calculation
 timing information                             : on
 memory usage estimate                          : on
 write extra output files                       : on
 write final potential to formatted file        : off
 write final density to formatted file          : off
 write BibTeX reference list                    : on
 write OTFG pseudopotential files               : on
 write electrostatic potential file             : on
 write bands file                               : on
 checkpoint writing                             : off
  
 output         length unit                     : A
 output           mass unit                     : amu
 output           time unit                     : ps
 output         charge unit                     : e
 output           spin unit                     : hbar/2
 output         energy unit                     : eV
 output          force unit                     : eV/A
 output       velocity unit                     : A/ps
 output       pressure unit                     : GPa
 output     inv_length unit                     : 1/A
 output      frequency unit                     : cm-1
 output force constant unit                     : eV/A**2
 output         volume unit                     : A**3
 output   IR intensity unit                     : (D/A)**2/amu
 output         dipole unit                     : D
 output         efield unit                     : eV/A/e
 output        entropy unit                     : J/mol/K
 output    efield chi2 unit                     : pm/V
  
 wavefunctions paging                           : none
 random number generator seed                   :  230203530
 data distribution                              : optimal for this architecture
 optimization strategy                          : balance speed and memory

 *********************** Exchange-Correlation Parameters ***********************
  
 using functional                               : RSCAN
 relativistic treatment                         : Koelling-Harmon
 DFT+D: Semi-empirical dispersion correction    : off

 ************************* Pseudopotential Parameters **************************
  
 pseudopotential representation                 : reciprocal space
 <beta|phi> representation                      : reciprocal space
 spin-orbit coupling                            : off

 **************************** Basis Set Parameters *****************************
  
 plane wave basis set cut-off                   :   900.0000   eV
 size of standard grid                          :     2.0000
 size of   fine   gmax                          :    30.7390   1/A
 finite basis set correction                    : none

 **************************** Electronic Parameters ****************************
  
 number of  electrons                           :  571.0    
 net charge of system                           :  0.000    
 net spin   of system                           :  1.000    
 number of  up  spins                           :  286.0    
 number of down spins                           :  285.0    
 treating system as spin-polarized
 number of bands                                :        343

 ********************* Electronic Minimization Parameters **********************
  
 Method: Treating system as metallic with density mixing treatment of electrons,
         and number of  SD  steps               :          1
         and number of  CG  steps               :          4
  
 total energy / atom convergence tol.           : 0.1000E-07   eV
 eigen-energy convergence tolerance             : 0.2203E-08   eV
 max force / atom convergence tol.              : ignored
 convergence tolerance window                   :          3   cycles
 max. number of SCF cycles                      :        100
 number of fixed-spin iterations                :         10
 smearing scheme                                : Gaussian
 smearing width                                 : 0.2000       eV
 Fermi energy convergence tolerance             : 0.2721E-13   eV
 periodic dipole correction                     : NONE

 ************************** Density Mixing Parameters **************************
  
 density-mixing scheme                          : Pulay
 max. length of mixing history                  :         20
 charge density mixing amplitude                : 0.5000    
   spin density mixing amplitude                :  2.000    
 cut-off energy for mixing                      :  900.0       eV

 *********************** Population Analysis Parameters ************************
  
 Population analysis with cutoff                :  3.000       A
 Population analysis output                     : summary and pdos components

 *******************************************************************************
  

                           -------------------------------
                                      Unit Cell
                           -------------------------------
        Real Lattice(A)                      Reciprocal Lattice(1/A)
    11.8016820    -0.0000080    -0.0000080        0.532397442   0.000000361   0.000000361
    -0.0000080    11.8016820    -0.0000080        0.000000361   0.532397442   0.000000361
    -0.0000080    -0.0000080    11.8016820        0.000000361   0.000000361   0.532397442

                       Lattice parameters(A)       Cell Angles
                    a =     11.801682          alpha =   90.000078
                    b =     11.801682          beta  =   90.000078
                    c =     11.801682          gamma =   90.000078

                       Current cell volume =          1643.734705       A**3
                                   density =             2.819410   AMU/A**3
                                           =             4.681741     g/cm^3

                           -------------------------------
                                     Cell Contents
                           -------------------------------
                         Total number of ions in cell =   63
                      Total number of species in cell =    2
                        Max number of any one species =   32

            xxxxxxxxxxxxxxxxxxxxxxxxxxxxxxxxxxxxxxxxxxxxxxxxxxxxxxxxxxxx
            x  Element    Atom        Fractional coordinates of atoms  x
            x            Number           u          v          w      x
            x----------------------------------------------------------x
            x  P            1         0.318289   0.318289   0.348013   x 
            x  P            2         0.375594   0.118871   0.112526   x 
            x  P            3         0.118871   0.375594   0.112526   x 
            x  P            4         0.122307   0.122307   0.874597   x 
            x  P            5         0.378902   0.118289   0.636568   x 
            x  P            6         0.118289   0.378902   0.636568   x 
            x  P            7         0.376799   0.376799   0.873727   x 
            x  P            8         0.124552   0.622757   0.375881   x 
            x  P            9         0.373098   0.619544   0.133482   x 
            x  P           10         0.123612   0.876769   0.131336   x 
            x  P           11         0.371940   0.879448   0.374928   x 
            x  P           12         0.124427   0.630957   0.875796   x 
            x  P           13         0.374010   0.620397   0.618953   x 
            x  P           14         0.122848   0.878349   0.618435   x 
            x  P           15         0.372696   0.865823   0.874744   x 
            x  P           16         0.622757   0.124552   0.375881   x 
            x  P           17         0.876769   0.123612   0.131336   x 
            x  P           18         0.619544   0.373098   0.133482   x 
            x  P           19         0.879448   0.371940   0.374928   x 
            x  P           20         0.630957   0.124427   0.875796   x 
            x  P           21         0.878349   0.122848   0.618435   x 
            x  P           22         0.620397   0.374010   0.618953   x 
            x  P           23         0.865823   0.372696   0.874744   x 
            x  P           24         0.623447   0.623447   0.375381   x 
            x  P           25         0.874201   0.623173   0.123543   x 
            x  P           26         0.623173   0.874201   0.123543   x 
            x  P           27         0.873969   0.873969   0.375285   x 
            x  P           28         0.622998   0.622998   0.876646   x 
            x  P           29         0.873958   0.624381   0.627396   x 
            x  P           30         0.624381   0.873958   0.627396   x 
            x  P           31         0.875166   0.875166   0.875988   x 
            x  In           1        -0.001027  -0.001027   0.003525   x 
            x  In           2         0.247397   0.010377   0.250731   x 
            x  In           3         0.010377   0.247397   0.250731   x 
            x  In           4         0.249891   0.249891  -0.005770   x 
            x  In           5         0.009889   0.009889   0.481406   x 
            x  In           6         0.246438  -0.007327   0.753670   x 
            x  In           7        -0.007327   0.246438   0.753670   x 
            x  In           8         0.251905   0.251905   0.533209   x 
            x  In           9        -0.005605   0.501510  -0.009513   x 
            x  In          10         0.240104   0.491662   0.248683   x 
            x  In          11        -0.002161   0.747602   0.251051   x 
            x  In          12         0.249370   0.748301   0.009619   x 
            x  In          13        -0.001348   0.500255   0.501621   x 
            x  In          14         0.250252   0.505274   0.753852   x 
            x  In          15        -0.000276   0.754089   0.747349   x 
            x  In          16         0.249634   0.750635   0.499360   x 
            x  In          17         0.501510  -0.005605  -0.009513   x 
            x  In          18         0.747602  -0.002161   0.251051   x 
            x  In          19         0.491662   0.240104   0.248683   x 
            x  In          20         0.748301   0.249370   0.009619   x 
            x  In          21         0.500255  -0.001348   0.501621   x 
            x  In          22         0.754089  -0.000276   0.747349   x 
            x  In          23         0.505274   0.250252   0.753852   x 
            x  In          24         0.750635   0.249634   0.499360   x 
            x  In          25         0.499079   0.499079   0.004380   x 
            x  In          26         0.751512   0.498934   0.251945   x 
            x  In          27         0.498934   0.751512   0.251945   x 
            x  In          28         0.749177   0.749177  -0.000324   x 
            x  In          29         0.489903   0.489903   0.487014   x 
            x  In          30         0.744354   0.499154   0.747647   x 
            x  In          31         0.499154   0.744354   0.747647   x 
            x  In          32         0.749399   0.749399   0.502717   x 
            xxxxxxxxxxxxxxxxxxxxxxxxxxxxxxxxxxxxxxxxxxxxxxxxxxxxxxxxxxxx


                         No user defined ionic velocities

                           -------------------------------
                                   Details of Species
                           -------------------------------

                               Mass of species in AMU
                                    P   30.9737600
                                    In  114.8180000

                          Electric Quadrupole Moment (Barn)
                                    P    1.0000000 No Isotope Defined
                                    In    0.7700000 Isotope115

                          Files used for pseudopotentials:
                                    P 3|1.8|4|4|5|30:31:32
                                    In 3|2.5|2.5|1.5|7|8|9|50:51:42U2.2U2.2

                           -------------------------------
                              k-Points For BZ Sampling
                           -------------------------------
                       MP grid size for SCF calculation is  4  4  4
                            with an offset of   0.125  0.125  0.125
                       Number of kpoints used =            36

                           -------------------------------
                               Symmetry and Constraints
                           -------------------------------

                      Maximum deviation from symmetry =  0.00000         ANG

                      Number of symmetry operations   =           1
                      Number of ionic constraints     =           3
                      Point group of crystal =     1: C1, 1, 1
                      Space group of crystal =     8: Cm, C -2y

             Set iprint > 1 for details on symmetry rotations/translations

                         Centre of mass is constrained
             Set iprint > 1 for details of linear ionic constraints

                         Number of cell constraints= 0
                         Cell constraints are:  1 2 3 4 5 6

                         External pressure/stress (GPa)
                          0.00000   0.00000   0.00000
                                    0.00000   0.00000
                                              0.00000
 
+---------------- MEMORY AND SCRATCH DISK ESTIMATES PER PROCESS --------------+
|                                                     Memory          Disk    |
| Baseline code, static data and system overhead      368.0 MB         0.0 MB |
| BLAS internal memory storage                          0.0 MB         0.0 MB |
| Model and support data                             4302.1 MB         0.0 MB |
| Electronic energy minimisation requirements        1320.9 MB         0.0 MB |
| Force calculation requirements                      127.4 MB         0.0 MB |
|                                               ----------------------------- |
| Approx. total storage required per process         5991.0 MB         0.0 MB |
|                                                                             |
| Requirements will fluctuate during execution and may exceed these estimates |
+-----------------------------------------------------------------------------+
Calculating approximate eigenstates for fixed initial Hamiltonian
Cut-off for approx. calculation is   89.988 eV
Improving approx. states at cut-off of  450.000 eV
Resetting cut-off to  900.000 eV
Calculating total energy with cut-off of  900.000 eV.
------------------------------------------------------------------------ <-- SCF
SCF loop      Energy           Fermi           Energy gain       Timer   <-- SCF
                               energy          per atom          (sec)   <-- SCF
------------------------------------------------------------------------ <-- SCF
Initial  -6.28281296E+004  0.00000000E+000                       430.27  <-- SCF
      1  -6.25849899E+004  3.24332266E+000  -3.85936121E+000     872.92  <-- SCF
      2  -6.25852546E+004  3.24287830E+000   4.20271614E-003    1184.49  <-- SCF
      3  -6.26523917E+004  3.33143511E+000   1.06566844E+000    1528.99  <-- SCF
      4  -6.26647265E+004  3.37053021E+000   1.95789130E-001    2030.58  <-- SCF
      5  -6.26720296E+004  3.47396049E+000   1.15922670E-001    2393.66  <-- SCF
      6  -6.26611807E+004  3.66645168E+000  -1.72205222E-001    2732.40  <-- SCF
      7  -6.26599415E+004  3.72803464E+000  -1.96691293E-002    3081.67  <-- SCF
      8  -6.26597696E+004  3.74651915E+000  -2.72936306E-003    3444.01  <-- SCF
      9  -6.26605370E+004  3.73938944E+000   1.21820532E-002    3803.85  <-- SCF
     10  -6.26610409E+004  3.95293015E+000   7.99806058E-003    4149.55  <-- SCF
     11  -6.26611039E+004  3.95502080E+000   1.00018729E-003    4500.86  <-- SCF
     12  -6.26611249E+004  3.95481310E+000   3.33395399E-004    4853.82  <-- SCF
     13  -6.26611341E+004  3.95416480E+000   1.45220072E-004    5202.29  <-- SCF
     14  -6.26611377E+004  3.95387276E+000   5.82648637E-005    5570.49  <-- SCF
     15  -6.26611386E+004  3.95386147E+000   1.39004122E-005    5943.64  <-- SCF
     16  -6.26611397E+004  3.95382261E+000   1.77322806E-005    6304.31  <-- SCF
     17  -6.26611401E+004  3.95395441E+000   5.73090890E-006    6676.24  <-- SCF
     18  -6.26611403E+004  3.95422111E+000   3.78209834E-006    7040.45  <-- SCF
     19  -6.26611404E+004  3.95434216E+000   8.73347862E-007    7379.74  <-- SCF
     20  -6.26611404E+004  3.95434530E+000   1.11526868E-007    7686.53  <-- SCF
     21  -6.26611404E+004  3.95432056E+000   3.58010273E-008    7955.64  <-- SCF
     22  -6.26611404E+004  3.95431173E+000   6.35666125E-009    8201.73  <-- SCF
     23  -6.26611404E+004  3.95430284E+000   2.43655974E-009    8443.86  <-- SCF
------------------------------------------------------------------------ <-- SCF
 
Integrated Spin Density     =   -0.311217E-03 hbar/2
Integrated |Spin Density|   =    0.121243E-02 hbar/2
 
Final energy, E             =  -62661.01960164     eV
Final free energy (E-TS)    =  -62661.14038979     eV
(energies not corrected for finite basis set)
 
NB est. 0K energy (E-0.5TS)      =  -62661.07999571     eV
 

 ************************** Forces **************************
 *                                                          *
 *               Cartesian components (eV/A)                *
 * -------------------------------------------------------- *
 *                         x            y            z      *
 *                                                          *
 * P               1      0.96976      0.96977      0.46727 *
 * P               2     -0.05350      0.04951      0.06666 *
 * P               3      0.04951     -0.05350      0.06666 *
 * P               4     -0.00202     -0.00201      0.01848 *
 * P               5     -0.08145     -0.05496     -0.07172 *
 * P               6     -0.05496     -0.08145     -0.07172 *
 * P               7     -0.01131     -0.01131      0.02247 *
 * P               8     -0.03820      0.01254      0.00068 *
 * P               9     -0.00114      0.03927     -0.05113 *
 * P              10      0.03164     -0.09800     -0.11825 *
 * P              11      0.00573      0.00316     -0.01156 *
 * P              12     -0.03356     -0.09747     -0.00862 *
 * P              13      0.01328     -0.01698     -0.00646 *
 * P              14     -0.06379     -0.07797      0.08799 *
 * P              15      0.00613      0.01172     -0.00529 *
 * P              16      0.01254     -0.03820      0.00068 *
 * P              17     -0.09800      0.03164     -0.11825 *
 * P              18      0.03927     -0.00114     -0.05113 *
 * P              19      0.00316      0.00573     -0.01156 *
 * P              20     -0.09747     -0.03355     -0.00862 *
 * P              21     -0.07797     -0.06379      0.08798 *
 * P              22     -0.01698      0.01328     -0.00646 *
 * P              23      0.01172      0.00612     -0.00530 *
 * P              24     -0.10648     -0.10647      0.03796 *
 * P              25     -0.03291     -0.01315     -0.00652 *
 * P              26     -0.01315     -0.03291     -0.00652 *
 * P              27     -0.04536     -0.04536      0.05620 *
 * P              28     -0.01825     -0.01825     -0.00640 *
 * P              29     -0.02184     -0.02252     -0.00300 *
 * P              30     -0.02253     -0.02184     -0.00300 *
 * P              31     -0.02320     -0.02320     -0.01226 *
 * In              1      0.00393      0.00393     -0.01994 *
 * In              2     -0.36258      0.11382      0.15404 *
 * In              3      0.11382     -0.36258      0.15404 *
 * In              4     -0.02739     -0.02739      0.07571 *
 * In              5      0.32212      0.32212     -0.15296 *
 * In              6     -0.06592     -0.02791     -0.00310 *
 * In              7     -0.02791     -0.06592     -0.00309 *
 * In              8     -0.09182     -0.09182     -0.03985 *
 * In              9     -0.01894     -0.00077      0.06346 *
 * In             10     -0.10895      0.17873     -0.07969 *
 * In             11     -0.00415      0.01577     -0.00721 *
 * In             12     -0.03102      0.00830     -0.02734 *
 * In             13     -0.01185      0.00430     -0.06987 *
 * In             14      0.05602      0.01820      0.03113 *
 * In             15      0.07363      0.02561     -0.02144 *
 * In             16     -0.04648      0.01941     -0.01938 *
 * In             17     -0.00077     -0.01895      0.06346 *
 * In             18      0.01577     -0.00415     -0.00721 *
 * In             19      0.17874     -0.10895     -0.07970 *
 * In             20      0.00830     -0.03102     -0.02734 *
 * In             21      0.00430     -0.01185     -0.06987 *
 * In             22      0.02561      0.07363     -0.02144 *
 * In             23      0.01819      0.05602      0.03114 *
 * In             24      0.01941     -0.04648     -0.01938 *
 * In             25     -0.00897     -0.00897     -0.00192 *
 * In             26     -0.00308     -0.03382     -0.04537 *
 * In             27     -0.03382     -0.00309     -0.04537 *
 * In             28      0.01753      0.01753      0.03495 *
 * In             29     -0.19985     -0.19985     -0.04739 *
 * In             30     -0.01443     -0.03152     -0.02685 *
 * In             31     -0.03151     -0.01442     -0.02685 *
 * In             32      0.00338      0.00338     -0.07461 *
 *                                                          *
 ************************************************************

 Pseudo atomic calculation performed for P 3s2 3p3

 Converged in 23 iterations to a total energy of -208.0292 eV

 Pseudo atomic calculation performed for In 4d10 5s2 5p1

 Converged in 42 iterations to a total energy of -1747.4501 eV
Charge spilling parameter for spin component 1 = 0.18%
Charge spilling parameter for spin component 2 = 0.18%

                   Orbital Populations                  
  ---------------------------------------------------------------
     Ion    Atom   Orbital              Up        Down      Spin
  ---------------------------------------------------------------
      P     1      S                    0.877     0.877    -0.000
      P     1      Px                   0.651     0.651     0.000
      P     1      Py                   0.651     0.651     0.000
      P     1      Pz                   0.644     0.644    -0.000
      P     2      S                    0.871     0.871    -0.000
      P     2      Px                   0.648     0.648    -0.000
      P     2      Py                   0.663     0.663     0.000
      P     2      Pz                   0.646     0.646    -0.000
      P     3      S                    0.871     0.871    -0.000
      P     3      Px                   0.663     0.663    -0.000
      P     3      Py                   0.648     0.648    -0.000
      P     3      Pz                   0.646     0.646    -0.000
      P     4      S                    0.867     0.867    -0.000
      P     4      Px                   0.655     0.655     0.000
      P     4      Py                   0.655     0.655     0.000
      P     4      Pz                   0.659     0.659     0.000
      P     5      S                    0.870     0.870    -0.000
      P     5      Px                   0.648     0.648     0.000
      P     5      Py                   0.655     0.655    -0.000
      P     5      Pz                   0.663     0.663    -0.000
      P     6      S                    0.870     0.870    -0.000
      P     6      Px                   0.655     0.655     0.000
      P     6      Py                   0.648     0.648     0.000
      P     6      Pz                   0.663     0.663    -0.000
      P     7      S                    0.868     0.868     0.000
      P     7      Px                   0.656     0.656     0.000
      P     7      Py                   0.656     0.656     0.000
      P     7      Pz                   0.658     0.658     0.000
      P     8      S                    0.868     0.868    -0.000
      P     8      Px                   0.657     0.657     0.000
      P     8      Py                   0.656     0.656    -0.000
      P     8      Pz                   0.656     0.656     0.000
      P     9      S                    0.870     0.870    -0.000
      P     9      Px                   0.655     0.655     0.000
      P     9      Py                   0.653     0.653     0.000
      P     9      Pz                   0.657     0.657    -0.000
      P    10      S                    0.870     0.870    -0.000
      P    10      Px                   0.661     0.660     0.000
      P    10      Py                   0.647     0.647    -0.000
      P    10      Pz                   0.653     0.653    -0.000
      P    11      S                    0.872     0.872    -0.000
      P    11      Px                   0.649     0.649    -0.000
      P    11      Py                   0.646     0.646     0.000
      P    11      Pz                   0.661     0.661     0.000
      P    12      S                    0.871     0.871     0.000
      P    12      Px                   0.656     0.656    -0.000
      P    12      Py                   0.653     0.653     0.000
      P    12      Pz                   0.653     0.653    -0.000
      P    13      S                    0.871     0.871     0.000
      P    13      Px                   0.663     0.663    -0.000
      P    13      Py                   0.651     0.651    -0.000
      P    13      Pz                   0.648     0.648     0.000
      P    14      S                    0.872     0.872    -0.000
      P    14      Px                   0.661     0.661    -0.000
      P    14      Py                   0.649     0.649    -0.000
      P    14      Pz                   0.645     0.645    -0.000
      P    15      S                    0.868     0.868    -0.000
      P    15      Px                   0.655     0.655     0.000
      P    15      Py                   0.656     0.656    -0.000
      P    15      Pz                   0.656     0.656    -0.000
      P    16      S                    0.868     0.868    -0.000
      P    16      Px                   0.656     0.656    -0.000
      P    16      Py                   0.657     0.657     0.000
      P    16      Pz                   0.656     0.656     0.000
      P    17      S                    0.870     0.870    -0.000
      P    17      Px                   0.647     0.647    -0.000
      P    17      Py                   0.661     0.660     0.000
      P    17      Pz                   0.653     0.653    -0.000
      P    18      S                    0.870     0.870    -0.000
      P    18      Px                   0.653     0.653    -0.000
      P    18      Py                   0.655     0.655     0.000
      P    18      Pz                   0.657     0.657    -0.000
      P    19      S                    0.872     0.872    -0.000
      P    19      Px                   0.646     0.646     0.000
      P    19      Py                   0.649     0.649    -0.000
      P    19      Pz                   0.661     0.661     0.000
      P    20      S                    0.871     0.871     0.000
      P    20      Px                   0.653     0.653     0.000
      P    20      Py                   0.656     0.656    -0.000
      P    20      Pz                   0.653     0.653    -0.000
      P    21      S                    0.872     0.872    -0.000
      P    21      Px                   0.649     0.649    -0.000
      P    21      Py                   0.661     0.661    -0.000
      P    21      Pz                   0.645     0.645    -0.000
      P    22      S                    0.871     0.871     0.000
      P    22      Px                   0.651     0.651    -0.000
      P    22      Py                   0.663     0.663    -0.000
      P    22      Pz                   0.648     0.648    -0.000
      P    23      S                    0.868     0.868    -0.000
      P    23      Px                   0.656     0.656    -0.000
      P    23      Py                   0.655     0.655     0.000
      P    23      Pz                   0.656     0.656    -0.000
      P    24      S                    0.875     0.875     0.000
      P    24      Px                   0.642     0.642     0.000
      P    24      Py                   0.642     0.642     0.000
      P    24      Pz                   0.668     0.668     0.000
      P    25      S                    0.868     0.868    -0.000
      P    25      Px                   0.658     0.658     0.000
      P    25      Py                   0.657     0.657     0.000
      P    25      Pz                   0.652     0.652    -0.000
      P    26      S                    0.868     0.868    -0.000
      P    26      Px                   0.657     0.657     0.000
      P    26      Py                   0.658     0.658     0.000
      P    26      Pz                   0.652     0.652    -0.000
      P    27      S                    0.872     0.872    -0.000
      P    27      Px                   0.647     0.647     0.000
      P    27      Py                   0.647     0.647     0.000
      P    27      Pz                   0.664     0.664    -0.000
      P    28      S                    0.868     0.868     0.000
      P    28      Px                   0.658     0.658     0.000
      P    28      Py                   0.658     0.658     0.000
      P    28      Pz                   0.654     0.654     0.000
      P    29      S                    0.868     0.868    -0.000
      P    29      Px                   0.655     0.655     0.000
      P    29      Py                   0.656     0.656     0.000
      P    29      Pz                   0.659     0.659    -0.000
      P    30      S                    0.868     0.868    -0.000
      P    30      Px                   0.656     0.656     0.000
      P    30      Py                   0.655     0.655    -0.000
      P    30      Pz                   0.659     0.659    -0.000
      P    31      S                    0.868     0.868    -0.000
      P    31      Px                   0.657     0.657    -0.000
      P    31      Py                   0.657     0.657    -0.000
      P    31      Pz                   0.654     0.654     0.000
     In     1      Dzz                  1.000     1.000     0.000
     In     1      Dzy                  0.998     0.998    -0.000
     In     1      Dzx                  0.998     0.998    -0.000
     In     1      Dxx-yy               1.000     1.000    -0.000
     In     1      Dxy                  0.999     0.999    -0.000
     In     1      S                    0.707     0.707     0.000
     In     1      Px                   0.240     0.240     0.000
     In     1      Py                   0.240     0.240     0.000
     In     1      Pz                   0.239     0.239     0.000
     In     1      S                   -0.247    -0.247     0.000
     In     2      Dzz                  1.000     1.000    -0.000
     In     2      Dzy                  0.999     0.999     0.000
     In     2      Dzx                  0.999     0.999    -0.000
     In     2      Dxx-yy               1.000     1.000    -0.000
     In     2      Dxy                  0.999     0.999     0.000
     In     2      S                    0.724     0.724    -0.000
     In     2      Px                   0.243     0.243    -0.000
     In     2      Py                   0.238     0.238    -0.000
     In     2      Pz                   0.236     0.236     0.000
     In     2      S                   -0.234    -0.234     0.000
     In     3      Dzz                  1.000     1.000    -0.000
     In     3      Dzy                  0.999     0.999    -0.000
     In     3      Dzx                  0.999     0.999     0.000
     In     3      Dxx-yy               1.000     1.000    -0.000
     In     3      Dxy                  0.999     0.999     0.000
     In     3      S                    0.724     0.724    -0.000
     In     3      Px                   0.238     0.238    -0.000
     In     3      Py                   0.243     0.243    -0.000
     In     3      Pz                   0.236     0.236    -0.000
     In     3      S                   -0.234    -0.234    -0.000
     In     4      Dzz                  1.000     1.000    -0.000
     In     4      Dzy                  0.999     0.999     0.000
     In     4      Dzx                  0.999     0.999     0.000
     In     4      Dxx-yy               1.000     1.000     0.000
     In     4      Dxy                  0.998     0.998     0.000
     In     4      S                    0.707     0.707     0.000
     In     4      Px                   0.243     0.243     0.000
     In     4      Py                   0.243     0.243     0.000
     In     4      Pz                   0.232     0.232     0.000
     In     4      S                   -0.251    -0.251    -0.000
     In     5      Dzz                  1.000     1.000     0.000
     In     5      Dzy                  0.999     0.999    -0.000
     In     5      Dzx                  0.999     0.999    -0.000
     In     5      Dxx-yy               1.000     1.000     0.000
     In     5      Dxy                  0.999     0.999    -0.000
     In     5      S                    0.734     0.735    -0.000
     In     5      Px                   0.247     0.247    -0.000
     In     5      Py                   0.247     0.247    -0.000
     In     5      Pz                   0.242     0.242    -0.000
     In     5      S                   -0.233    -0.233     0.000
     In     6      Dzz                  1.000     1.000     0.000
     In     6      Dzy                  0.999     0.999     0.000
     In     6      Dzx                  0.998     0.998    -0.000
     In     6      Dxx-yy               1.000     1.000    -0.000
     In     6      Dxy                  0.998     0.998    -0.000
     In     6      S                    0.708     0.708    -0.000
     In     6      Px                   0.241     0.241     0.000
     In     6      Py                   0.240     0.240     0.000
     In     6      Pz                   0.237     0.237     0.000
     In     6      S                   -0.252    -0.252     0.000
     In     7      Dzz                  1.000     1.000     0.000
     In     7      Dzy                  0.998     0.998     0.000
     In     7      Dzx                  0.999     0.999     0.000
     In     7      Dxx-yy               1.000     1.000    -0.000
     In     7      Dxy                  0.998     0.998    -0.000
     In     7      S                    0.708     0.708    -0.000
     In     7      Px                   0.240     0.240     0.000
     In     7      Py                   0.241     0.241     0.000
     In     7      Pz                   0.237     0.237     0.000
     In     7      S                   -0.252    -0.252     0.000
     In     8      Dzz                  0.999     0.999    -0.000
     In     8      Dzy                  0.999     0.999     0.000
     In     8      Dzx                  0.999     0.999     0.000
     In     8      Dxx-yy               1.000     1.000     0.000
     In     8      Dxy                  0.998     0.998     0.000
     In     8      S                    0.734     0.734    -0.000
     In     8      Px                   0.233     0.233    -0.000
     In     8      Py                   0.233     0.233    -0.000
     In     8      Pz                   0.233     0.233     0.000
     In     8      S                   -0.257    -0.257     0.000
     In     9      Dzz                  1.000     1.000     0.000
     In     9      Dzy                  0.998     0.998    -0.000
     In     9      Dzx                  0.998     0.998     0.000
     In     9      Dxx-yy               1.000     1.000     0.000
     In     9      Dxy                  0.998     0.998     0.000
     In     9      S                    0.714     0.714    -0.000
     In     9      Px                   0.244     0.244    -0.000
     In     9      Py                   0.243     0.243     0.000
     In     9      Pz                   0.238     0.238    -0.000
     In     9      S                   -0.252    -0.252    -0.000
     In    10      Dzz                  1.000     1.000     0.000
     In    10      Dzy                  0.998     0.998    -0.000
     In    10      Dzx                  0.999     0.999     0.000
     In    10      Dxx-yy               0.999     0.999     0.000
     In    10      Dxy                  0.998     0.998    -0.000
     In    10      S                    0.706     0.706    -0.000
     In    10      Px                   0.234     0.234    -0.000
     In    10      Py                   0.245     0.245     0.000
     In    10      Pz                   0.244     0.244    -0.000
     In    10      S                   -0.248    -0.248     0.000
     In    11      Dzz                  1.000     1.000    -0.000
     In    11      Dzy                  0.998     0.998    -0.000
     In    11      Dzx                  0.999     0.999     0.000
     In    11      Dxx-yy               1.000     1.000     0.000
     In    11      Dxy                  0.998     0.998    -0.000
     In    11      S                    0.708     0.708     0.000
     In    11      Px                   0.241     0.241    -0.000
     In    11      Py                   0.240     0.240     0.000
     In    11      Pz                   0.239     0.239     0.000
     In    11      S                   -0.241    -0.241     0.000
     In    12      Dzz                  1.000     1.000     0.000
     In    12      Dzy                  0.999     0.999    -0.000
     In    12      Dzx                  0.998     0.998    -0.000
     In    12      Dxx-yy               1.000     1.000    -0.000
     In    12      Dxy                  0.999     0.999     0.000
     In    12      S                    0.707     0.707    -0.000
     In    12      Px                   0.240     0.240    -0.000
     In    12      Py                   0.238     0.238     0.000
     In    12      Pz                   0.241     0.241    -0.000
     In    12      S                   -0.255    -0.255     0.000
     In    13      Dzz                  1.000     1.000    -0.000
     In    13      Dzy                  0.998     0.998    -0.000
     In    13      Dzx                  0.998     0.998     0.000
     In    13      Dxx-yy               1.000     1.000    -0.000
     In    13      Dxy                  0.999     0.999     0.000
     In    13      S                    0.711     0.711     0.000
     In    13      Px                   0.239     0.239     0.000
     In    13      Py                   0.239     0.239     0.000
     In    13      Pz                   0.241     0.241     0.000
     In    13      S                   -0.256    -0.256     0.000
     In    14      Dzz                  1.000     1.000    -0.000
     In    14      Dzy                  0.999     0.999     0.000
     In    14      Dzx                  0.998     0.998    -0.000
     In    14      Dxx-yy               1.000     1.000     0.000
     In    14      Dxy                  0.998     0.998    -0.000
     In    14      S                    0.708     0.708     0.000
     In    14      Px                   0.243     0.243    -0.000
     In    14      Py                   0.240     0.240     0.000
     In    14      Pz                   0.239     0.239    -0.000
     In    14      S                   -0.257    -0.257    -0.000
     In    15      Dzz                  1.000     1.000     0.000
     In    15      Dzy                  0.999     0.999    -0.000
     In    15      Dzx                  0.998     0.998     0.000
     In    15      Dxx-yy               1.000     1.000     0.000
     In    15      Dxy                  0.999     0.999     0.000
     In    15      S                    0.712     0.712    -0.000
     In    15      Px                   0.242     0.242    -0.000
     In    15      Py                   0.238     0.238     0.000
     In    15      Pz                   0.240     0.240    -0.000
     In    15      S                   -0.249    -0.249    -0.000
     In    16      Dzz                  1.000     1.000     0.000
     In    16      Dzy                  0.998     0.998    -0.000
     In    16      Dzx                  0.999     0.999     0.000
     In    16      Dxx-yy               1.000     1.000     0.000
     In    16      Dxy                  0.998     0.998    -0.000
     In    16      S                    0.710     0.710     0.000
     In    16      Px                   0.239     0.239     0.000
     In    16      Py                   0.241     0.241     0.000
     In    16      Pz                   0.240     0.240     0.000
     In    16      S                   -0.242    -0.242    -0.000
     In    17      Dzz                  1.000     1.000     0.000
     In    17      Dzy                  0.998     0.998     0.000
     In    17      Dzx                  0.998     0.998    -0.000
     In    17      Dxx-yy               1.000     1.000     0.000
     In    17      Dxy                  0.998     0.998     0.000
     In    17      S                    0.714     0.714    -0.000
     In    17      Px                   0.243     0.243     0.000
     In    17      Py                   0.244     0.244    -0.000
     In    17      Pz                   0.238     0.238    -0.000
     In    17      S                   -0.252    -0.252    -0.000
     In    18      Dzz                  1.000     1.000    -0.000
     In    18      Dzy                  0.999     0.999     0.000
     In    18      Dzx                  0.998     0.998     0.000
     In    18      Dxx-yy               1.000     1.000     0.000
     In    18      Dxy                  0.998     0.998    -0.000
     In    18      S                    0.708     0.707     0.000
     In    18      Px                   0.240     0.240     0.000
     In    18      Py                   0.241     0.241    -0.000
     In    18      Pz                   0.239     0.239     0.000
     In    18      S                   -0.241    -0.241     0.000
     In    19      Dzz                  1.000     1.000     0.000
     In    19      Dzy                  0.999     0.999     0.000
     In    19      Dzx                  0.998     0.998    -0.000
     In    19      Dxx-yy               0.999     0.999     0.000
     In    19      Dxy                  0.998     0.998    -0.000
     In    19      S                    0.706     0.706    -0.000
     In    19      Px                   0.245     0.245     0.000
     In    19      Py                   0.234     0.234     0.000
     In    19      Pz                   0.244     0.244    -0.000
     In    19      S                   -0.248    -0.248     0.000
     In    20      Dzz                  1.000     1.000     0.000
     In    20      Dzy                  0.998     0.998     0.000
     In    20      Dzx                  0.999     0.999    -0.000
     In    20      Dxx-yy               1.000     1.000    -0.000
     In    20      Dxy                  0.999     0.999     0.000
     In    20      S                    0.707     0.707    -0.000
     In    20      Px                   0.238     0.238     0.000
     In    20      Py                   0.240     0.240    -0.000
     In    20      Pz                   0.241     0.241    -0.000
     In    20      S                   -0.255    -0.255     0.000
     In    21      Dzz                  1.000     1.000    -0.000
     In    21      Dzy                  0.998     0.998     0.000
     In    21      Dzx                  0.998     0.998    -0.000
     In    21      Dxx-yy               1.000     1.000    -0.000
     In    21      Dxy                  0.999     0.999     0.000
     In    21      S                    0.711     0.711     0.000
     In    21      Px                   0.239     0.239     0.000
     In    21      Py                   0.239     0.239     0.000
     In    21      Pz                   0.241     0.241     0.000
     In    21      S                   -0.256    -0.256     0.000
     In    22      Dzz                  1.000     1.000     0.000
     In    22      Dzy                  0.998     0.998     0.000
     In    22      Dzx                  0.999     0.999     0.000
     In    22      Dxx-yy               1.000     1.000     0.000
     In    22      Dxy                  0.999     0.999     0.000
     In    22      S                    0.712     0.712    -0.000
     In    22      Px                   0.238     0.238    -0.000
     In    22      Py                   0.242     0.242    -0.000
     In    22      Pz                   0.240     0.240    -0.000
     In    22      S                   -0.249    -0.249    -0.000
     In    23      Dzz                  1.000     1.000    -0.000
     In    23      Dzy                  0.998     0.998     0.000
     In    23      Dzx                  0.999     0.999     0.000
     In    23      Dxx-yy               1.000     1.000     0.000
     In    23      Dxy                  0.998     0.998    -0.000
     In    23      S                    0.708     0.708     0.000
     In    23      Px                   0.240     0.240     0.000
     In    23      Py                   0.243     0.243    -0.000
     In    23      Pz                   0.239     0.239    -0.000
     In    23      S                   -0.257    -0.257    -0.000
     In    24      Dzz                  1.000     1.000     0.000
     In    24      Dzy                  0.999     0.999     0.000
     In    24      Dzx                  0.998     0.998    -0.000
     In    24      Dxx-yy               1.000     1.000     0.000
     In    24      Dxy                  0.998     0.998    -0.000
     In    24      S                    0.710     0.710    -0.000
     In    24      Px                   0.241     0.241     0.000
     In    24      Py                   0.239     0.239     0.000
     In    24      Pz                   0.240     0.240     0.000
     In    24      S                   -0.242    -0.242    -0.000
     In    25      Dzz                  1.000     1.000     0.000
     In    25      Dzy                  0.998     0.998    -0.000
     In    25      Dzx                  0.998     0.998    -0.000
     In    25      Dxx-yy               1.000     1.000     0.000
     In    25      Dxy                  0.999     0.999    -0.000
     In    25      S                    0.708     0.708     0.000
     In    25      Px                   0.239     0.239    -0.000
     In    25      Py                   0.239     0.239    -0.000
     In    25      Pz                   0.243     0.243    -0.000
     In    25      S                   -0.248    -0.248     0.000
     In    26      Dzz                  1.000     1.000     0.000
     In    26      Dzy                  0.999     0.999     0.000
     In    26      Dzx                  0.999     0.999    -0.000
     In    26      Dxx-yy               1.000     1.000     0.000
     In    26      Dxy                  0.999     0.999     0.000
     In    26      S                    0.710     0.710    -0.000
     In    26      Px                   0.241     0.241    -0.000
     In    26      Py                   0.239     0.239    -0.000
     In    26      Pz                   0.238     0.238    -0.000
     In    26      S                   -0.248    -0.248    -0.000
     In    27      Dzz                  1.000     1.000     0.000
     In    27      Dzy                  0.999     0.999    -0.000
     In    27      Dzx                  0.999     0.999     0.000
     In    27      Dxx-yy               1.000     1.000     0.000
     In    27      Dxy                  0.999     0.999    -0.000
     In    27      S                    0.710     0.710    -0.000
     In    27      Px                   0.239     0.239    -0.000
     In    27      Py                   0.241     0.241    -0.000
     In    27      Pz                   0.238     0.238    -0.000
     In    27      S                   -0.248    -0.248    -0.000
     In    28      Dzz                  1.000     1.000     0.000
     In    28      Dzy                  0.999     0.999     0.000
     In    28      Dzx                  0.999     0.999     0.000
     In    28      Dxx-yy               1.000     1.000     0.000
     In    28      Dxy                  0.998     0.998     0.000
     In    28      S                    0.706     0.706    -0.000
     In    28      Px                   0.240     0.240    -0.000
     In    28      Py                   0.240     0.240    -0.000
     In    28      Pz                   0.241     0.241    -0.000
     In    28      S                   -0.260    -0.260     0.000
     In    29      Dzz                  1.000     1.000     0.000
     In    29      Dzy                  0.999     0.999    -0.000
     In    29      Dzx                  0.999     0.999    -0.000
     In    29      Dxx-yy               1.000     1.000    -0.000
     In    29      Dxy                  0.999     0.999     0.000
     In    29      S                    0.711     0.711    -0.000
     In    29      Px                   0.235     0.235    -0.000
     In    29      Py                   0.235     0.235    -0.000
     In    29      Pz                   0.232     0.232    -0.000
     In    29      S                   -0.232    -0.232     0.000
     In    30      Dzz                  1.000     1.000     0.000
     In    30      Dzy                  0.998     0.998    -0.000
     In    30      Dzx                  0.999     0.999     0.000
     In    30      Dxx-yy               1.000     1.000     0.000
     In    30      Dxy                  0.999     0.999     0.000
     In    30      S                    0.709     0.709     0.000
     In    30      Px                   0.239     0.239    -0.000
     In    30      Py                   0.240     0.240    -0.000
     In    30      Pz                   0.241     0.241    -0.000
     In    30      S                   -0.247    -0.247    -0.000
     In    31      Dzz                  1.000     1.000     0.000
     In    31      Dzy                  0.999     0.999     0.000
     In    31      Dzx                  0.998     0.998    -0.000
     In    31      Dxx-yy               1.000     1.000     0.000
     In    31      Dxy                  0.999     0.999     0.000
     In    31      S                    0.709     0.709     0.000
     In    31      Px                   0.240     0.240    -0.000
     In    31      Py                   0.239     0.239    -0.000
     In    31      Pz                   0.241     0.241    -0.000
     In    31      S                   -0.247    -0.247    -0.000
     In    32      Dzz                  1.000     1.000     0.000
     In    32      Dzy                  0.998     0.998    -0.000
     In    32      Dzx                  0.998     0.998    -0.000
     In    32      Dxx-yy               1.000     1.000     0.000
     In    32      Dxy                  0.999     0.999     0.000
     In    32      S                    0.712     0.712    -0.000
     In    32      Px                   0.239     0.239    -0.000
     In    32      Py                   0.239     0.239    -0.000
     In    32      Pz                   0.241     0.241    -0.000
     In    32      S                   -0.244    -0.244    -0.000
  ---------------------------------------------------------------
                           Total:     285.500   285.500    -0.001
  ---------------------------------------------------------------

     Atomic Populations (Mulliken)
     -----------------------------
Species          Ion Spin      s       p       d       f      Total   Charge(e)   Spin(hbar/2)
==============================================================================================
  P               1   up:     0.877   1.945   0.000   0.000   2.822    -0.643        0.000
                  1   dn:     0.877   1.945   0.000   0.000   2.822
  P               2   up:     0.871   1.957   0.000   0.000   2.827    -0.655       -0.000
                  2   dn:     0.871   1.957   0.000   0.000   2.827
  P               3   up:     0.871   1.957   0.000   0.000   2.827    -0.655       -0.000
                  3   dn:     0.871   1.957   0.000   0.000   2.827
  P               4   up:     0.867   1.969   0.000   0.000   2.837    -0.673        0.000
                  4   dn:     0.867   1.969   0.000   0.000   2.837
  P               5   up:     0.870   1.966   0.000   0.000   2.836    -0.671       -0.000
                  5   dn:     0.870   1.966   0.000   0.000   2.836
  P               6   up:     0.870   1.966   0.000   0.000   2.836    -0.671       -0.000
                  6   dn:     0.870   1.966   0.000   0.000   2.836
  P               7   up:     0.868   1.969   0.000   0.000   2.837    -0.673        0.000
                  7   dn:     0.868   1.969   0.000   0.000   2.836
  P               8   up:     0.868   1.968   0.000   0.000   2.836    -0.672        0.000
                  8   dn:     0.868   1.968   0.000   0.000   2.836
  P               9   up:     0.870   1.964   0.000   0.000   2.834    -0.667        0.000
                  9   dn:     0.870   1.964   0.000   0.000   2.834
  P              10   up:     0.870   1.961   0.000   0.000   2.831    -0.662       -0.000
                 10   dn:     0.870   1.961   0.000   0.000   2.831
  P              11   up:     0.872   1.957   0.000   0.000   2.829    -0.658        0.000
                 11   dn:     0.872   1.957   0.000   0.000   2.829
  P              12   up:     0.871   1.962   0.000   0.000   2.832    -0.665       -0.000
                 12   dn:     0.871   1.962   0.000   0.000   2.832
  P              13   up:     0.871   1.961   0.000   0.000   2.832    -0.664       -0.000
                 13   dn:     0.871   1.961   0.000   0.000   2.832
  P              14   up:     0.872   1.955   0.000   0.000   2.827    -0.655       -0.000
                 14   dn:     0.872   1.955   0.000   0.000   2.827
  P              15   up:     0.868   1.967   0.000   0.000   2.835    -0.670       -0.000
                 15   dn:     0.868   1.967   0.000   0.000   2.835
  P              16   up:     0.868   1.968   0.000   0.000   2.836    -0.672       -0.000
                 16   dn:     0.868   1.968   0.000   0.000   2.836
  P              17   up:     0.870   1.961   0.000   0.000   2.831    -0.662       -0.000
                 17   dn:     0.870   1.961   0.000   0.000   2.831
  P              18   up:     0.870   1.964   0.000   0.000   2.834    -0.667       -0.000
                 18   dn:     0.870   1.964   0.000   0.000   2.834
  P              19   up:     0.872   1.957   0.000   0.000   2.829    -0.658       -0.000
                 19   dn:     0.872   1.957   0.000   0.000   2.829
  P              20   up:     0.871   1.962   0.000   0.000   2.832    -0.665       -0.000
                 20   dn:     0.871   1.962   0.000   0.000   2.832
  P              21   up:     0.872   1.955   0.000   0.000   2.827    -0.655       -0.000
                 21   dn:     0.872   1.955   0.000   0.000   2.827
  P              22   up:     0.871   1.961   0.000   0.000   2.832    -0.664        0.000
                 22   dn:     0.871   1.961   0.000   0.000   2.832
  P              23   up:     0.868   1.967   0.000   0.000   2.835    -0.670       -0.000
                 23   dn:     0.868   1.967   0.000   0.000   2.835
  P              24   up:     0.875   1.952   0.000   0.000   2.828    -0.655        0.000
                 24   dn:     0.875   1.952   0.000   0.000   2.828
  P              25   up:     0.868   1.968   0.000   0.000   2.836    -0.672        0.000
                 25   dn:     0.868   1.968   0.000   0.000   2.836
  P              26   up:     0.868   1.968   0.000   0.000   2.836    -0.672        0.000
                 26   dn:     0.868   1.968   0.000   0.000   2.836
  P              27   up:     0.872   1.957   0.000   0.000   2.829    -0.658        0.000
                 27   dn:     0.872   1.957   0.000   0.000   2.829
  P              28   up:     0.868   1.969   0.000   0.000   2.837    -0.674        0.000
                 28   dn:     0.868   1.969   0.000   0.000   2.837
  P              29   up:     0.868   1.969   0.000   0.000   2.837    -0.673        0.000
                 29   dn:     0.868   1.969   0.000   0.000   2.837
  P              30   up:     0.868   1.969   0.000   0.000   2.837    -0.673       -0.000
                 30   dn:     0.868   1.969   0.000   0.000   2.837
  P              31   up:     0.868   1.969   0.000   0.000   2.837    -0.673       -0.000
                 31   dn:     0.868   1.969   0.000   0.000   2.837
  In              1   up:     0.460   0.719   4.995   0.000   6.174     0.653        0.000
                  1   dn:     0.460   0.719   4.995   0.000   6.173
  In              2   up:     0.490   0.717   4.996   0.000   6.203     0.594       -0.000
                  2   dn:     0.490   0.717   4.996   0.000   6.203
  In              3   up:     0.490   0.717   4.996   0.000   6.203     0.594       -0.000
                  3   dn:     0.490   0.717   4.996   0.000   6.203
  In              4   up:     0.456   0.718   4.995   0.000   6.169     0.662        0.000
                  4   dn:     0.456   0.718   4.995   0.000   6.169
  In              5   up:     0.502   0.736   4.996   0.000   6.234     0.532       -0.000
                  5   dn:     0.502   0.736   4.996   0.000   6.234
  In              6   up:     0.457   0.719   4.995   0.000   6.170     0.660        0.000
                  6   dn:     0.457   0.719   4.995   0.000   6.170
  In              7   up:     0.457   0.719   4.995   0.000   6.170     0.660        0.000
                  7   dn:     0.457   0.719   4.995   0.000   6.170
  In              8   up:     0.476   0.699   4.994   0.000   6.169     0.663       -0.000
                  8   dn:     0.476   0.699   4.994   0.000   6.169
  In              9   up:     0.462   0.726   4.994   0.000   6.182     0.636       -0.000
                  9   dn:     0.462   0.726   4.994   0.000   6.182
  In             10   up:     0.458   0.722   4.994   0.000   6.174     0.651        0.000
                 10   dn:     0.458   0.722   4.994   0.000   6.174
  In             11   up:     0.466   0.720   4.995   0.000   6.181     0.638        0.000
                 11   dn:     0.466   0.720   4.995   0.000   6.181
  In             12   up:     0.452   0.718   4.995   0.000   6.165     0.669       -0.000
                 12   dn:     0.452   0.718   4.995   0.000   6.165
  In             13   up:     0.455   0.719   4.995   0.000   6.169     0.661        0.000
                 13   dn:     0.455   0.719   4.995   0.000   6.169
  In             14   up:     0.451   0.722   4.995   0.000   6.167     0.666        0.000
                 14   dn:     0.451   0.722   4.995   0.000   6.167
  In             15   up:     0.463   0.720   4.995   0.000   6.178     0.644       -0.000
                 15   dn:     0.463   0.720   4.995   0.000   6.178
  In             16   up:     0.468   0.720   4.995   0.000   6.183     0.634        0.000
                 16   dn:     0.468   0.720   4.995   0.000   6.183
  In             17   up:     0.462   0.726   4.994   0.000   6.182     0.636       -0.000
                 17   dn:     0.462   0.726   4.994   0.000   6.182
  In             18   up:     0.466   0.720   4.995   0.000   6.181     0.638        0.000
                 18   dn:     0.466   0.720   4.995   0.000   6.181
  In             19   up:     0.458   0.722   4.994   0.000   6.174     0.651        0.000
                 19   dn:     0.458   0.722   4.994   0.000   6.174
  In             20   up:     0.452   0.718   4.995   0.000   6.165     0.669       -0.000
                 20   dn:     0.452   0.718   4.995   0.000   6.165
  In             21   up:     0.455   0.719   4.995   0.000   6.169     0.661        0.000
                 21   dn:     0.455   0.719   4.995   0.000   6.169
  In             22   up:     0.463   0.720   4.995   0.000   6.178     0.644       -0.000
                 22   dn:     0.463   0.720   4.995   0.000   6.178
  In             23   up:     0.451   0.722   4.995   0.000   6.167     0.666        0.000
                 23   dn:     0.451   0.722   4.995   0.000   6.167
  In             24   up:     0.468   0.720   4.995   0.000   6.183     0.634        0.000
                 24   dn:     0.468   0.720   4.995   0.000   6.183
  In             25   up:     0.460   0.721   4.995   0.000   6.175     0.650       -0.000
                 25   dn:     0.460   0.721   4.995   0.000   6.175
  In             26   up:     0.463   0.719   4.995   0.000   6.176     0.648       -0.000
                 26   dn:     0.463   0.719   4.995   0.000   6.176
  In             27   up:     0.463   0.719   4.995   0.000   6.176     0.648       -0.000
                 27   dn:     0.463   0.719   4.995   0.000   6.176
  In             28   up:     0.446   0.721   4.995   0.000   6.161     0.678        0.000
                 28   dn:     0.446   0.721   4.995   0.000   6.161
  In             29   up:     0.479   0.701   4.997   0.000   6.176     0.648       -0.000
                 29   dn:     0.479   0.701   4.997   0.000   6.176
  In             30   up:     0.461   0.720   4.995   0.000   6.176     0.649       -0.000
                 30   dn:     0.461   0.720   4.995   0.000   6.176
  In             31   up:     0.461   0.720   4.995   0.000   6.176     0.649       -0.000
                 31   dn:     0.461   0.720   4.995   0.000   6.176
  In             32   up:     0.469   0.720   4.995   0.000   6.183     0.634       -0.000
                 32   dn:     0.469   0.720   4.995   0.000   6.183
==============================================================================================

                 Bond                   Population        Spin       Length (A)
================================================================================
              P 1  -- In 8                   0.86        -0.00          2.45041
              P 6  -- In 8                   0.74        -0.00          2.49416
              P 5  -- In 8                   0.74        -0.00          2.49416
              P 1  -- In 19                  0.65         0.00          2.53222
              P 1  -- In 10                  0.65         0.00          2.53222
              P 2  -- In 17                  0.63        -0.00          2.53784
              P 3  -- In 9                   0.63        -0.00          2.53784
              P 12 -- In 14                  0.68         0.00          2.54486
              P 20 -- In 23                  0.68        -0.00          2.54486
              P 23 -- In 9                   0.64         0.00          2.54545
              P 15 -- In 17                  0.64         0.00          2.54545
              P 14 -- In 16                  0.65         0.00          2.54667
              P 21 -- In 24                  0.65         0.00          2.54667
              P 21 -- In 7                   0.67         0.00          2.54853
              P 14 -- In 6                   0.67         0.00          2.54853
              P 16 -- In 21                  0.67        -0.00          2.54949
              P 8  -- In 13                  0.67        -0.00          2.54949
              P 29 -- In 32                  0.66         0.00          2.55008
              P 30 -- In 32                  0.66         0.00          2.55008
              P 15 -- In 6                   0.67        -0.00          2.55011
              P 23 -- In 7                   0.67        -0.00          2.55011
              P 28 -- In 31                  0.66        -0.00          2.55051
              P 28 -- In 30                  0.66        -0.00          2.55052
              P 3  -- In 10                  0.61        -0.00          2.55057
              P 2  -- In 19                  0.61        -0.00          2.55057
              P 16 -- In 19                  0.67        -0.00          2.55085
              P 8  -- In 10                  0.67        -0.00          2.55085
              P 31 -- In 22                  0.66        -0.00          2.55098
              P 31 -- In 15                  0.66         0.00          2.55098
              P 19 -- In 13                  0.66        -0.00          2.55106
              P 11 -- In 21                  0.66        -0.00          2.55106
              P 7  -- In 4                   0.65        -0.00          2.55124
              P 22 -- In 24                  0.64         0.00          2.55128
              P 13 -- In 16                  0.64        -0.00          2.55128
              P 27 -- In 18                  0.66         0.00          2.55163
              P 27 -- In 11                  0.66         0.00          2.55163
              P 22 -- In 23                  0.66         0.00          2.55220
              P 13 -- In 14                  0.66         0.00          2.55220
              P 30 -- In 21                  0.66        -0.00          2.55242
              P 29 -- In 13                  0.66        -0.00          2.55242
              P 17 -- In 1                   0.66         0.00          2.55321
              P 10 -- In 1                   0.66         0.00          2.55321
              P 20 -- In 17                  0.63        -0.00          2.55361
              P 12 -- In 9                   0.63        -0.00          2.55361
              P 10 -- In 11                  0.65        -0.00          2.55404
              P 17 -- In 18                  0.65        -0.00          2.55404
              P 4  -- In 6                   0.67        -0.00          2.55411
              P 4  -- In 7                   0.67        -0.00          2.55411
              P 25 -- In 28                  0.65         0.00          2.55449
              P 26 -- In 28                  0.65         0.00          2.55449
              P 4  -- In 4                   0.65         0.00          2.55493
              P 7  -- In 14                  0.67         0.00          2.55555
              P 7  -- In 23                  0.67         0.00          2.55555
              P 15 -- In 31                  0.64         0.00          2.55581
              P 23 -- In 30                  0.64         0.00          2.55581
              P 31 -- In 1                   0.65         0.00          2.55642
              P 29 -- In 30                  0.66         0.00          2.55689
              P 30 -- In 31                  0.66        -0.00          2.55689
              P 26 -- In 17                  0.65        -0.00          2.55725
              P 25 -- In 9                   0.65        -0.00          2.55725
              P 3  -- In 4                   0.65         0.00          2.55750
              P 2  -- In 4                   0.65         0.00          2.55750
              P 7  -- In 25                  0.64         0.00          2.55785
              P 26 -- In 27                  0.66        -0.00          2.55786
              P 25 -- In 26                  0.66        -0.00          2.55786
              P 28 -- In 28                  0.65         0.00          2.55796
              P 25 -- In 11                  0.65         0.00          2.55928
              P 26 -- In 18                  0.65         0.00          2.55928
              P 28 -- In 25                  0.65        -0.00          2.55930
              P 29 -- In 15                  0.65         0.00          2.55936
              P 30 -- In 22                  0.65         0.00          2.55936
              P 11 -- In 16                  0.65         0.00          2.55950
              P 19 -- In 24                  0.65         0.00          2.55950
              P 5  -- In 6                   0.61         0.00          2.55960
              P 6  -- In 7                   0.61         0.00          2.55960
              P 4  -- In 1                   0.65        -0.00          2.55977
              P 31 -- In 28                  0.66        -0.00          2.55977
              P 9  -- In 25                  0.65         0.00          2.55991
              P 18 -- In 25                  0.65         0.00          2.55991
              P 10 -- In 12                  0.64        -0.00          2.56220
              P 17 -- In 20                  0.64        -0.00          2.56220
              P 6  -- In 14                  0.60        -0.00          2.56233
              P 5  -- In 23                  0.60        -0.00          2.56234
              P 24 -- In 26                  0.63        -0.00          2.56237
              P 24 -- In 27                  0.63        -0.00          2.56237
              P 20 -- In 22                  0.61         0.00          2.56428
              P 12 -- In 15                  0.61        -0.00          2.56428
              P 23 -- In 20                  0.66        -0.00          2.56431
              P 15 -- In 12                  0.66         0.00          2.56431
              P 21 -- In 22                  0.63         0.00          2.56449
              P 14 -- In 15                  0.63         0.00          2.56449
              P 16 -- In 18                  0.65         0.00          2.56466
              P 8  -- In 11                  0.65         0.00          2.56466
              P 18 -- In 20                  0.65         0.00          2.56476
              P 9  -- In 12                  0.65         0.00          2.56476
              P 16 -- In 24                  0.65        -0.00          2.56521
              P 8  -- In 16                  0.65        -0.00          2.56521
              P 6  -- In 13                  0.63         0.00          2.56536
              P 5  -- In 21                  0.63         0.00          2.56536
              P 27 -- In 32                  0.64        -0.00          2.56599
              P 18 -- In 26                  0.65        -0.00          2.56626
              P 9  -- In 27                  0.65         0.00          2.56626
              P 12 -- In 12                  0.64         0.00          2.56639
              P 20 -- In 20                  0.64         0.00          2.56639
              P 3  -- In 3                   0.63         0.00          2.56686
              P 2  -- In 2                   0.63         0.00          2.56686
              P 18 -- In 19                  0.66        -0.00          2.56704
              P 9  -- In 10                  0.66        -0.00          2.56704
              P 17 -- In 3                   0.63         0.00          2.57020
              P 10 -- In 2                   0.63         0.00          2.57020
              P 13 -- In 31                  0.62         0.00          2.57451
              P 22 -- In 30                  0.62         0.00          2.57451
              P 11 -- In 27                  0.62        -0.00          2.57536
              P 19 -- In 26                  0.62        -0.00          2.57536
              P 13 -- In 29                  0.65         0.00          2.58206
              P 22 -- In 29                  0.65        -0.00          2.58206
              P 24 -- In 32                  0.60        -0.00          2.58407
              P 19 -- In 3                   0.64         0.00          2.58772
              P 11 -- In 2                   0.64         0.00          2.58772
              P 24 -- In 29                  0.64        -0.00          2.58911
              P 27 -- In 5                   0.61        -0.00          2.59127
              P 14 -- In 5                   0.59        -0.00          2.60813
              P 21 -- In 5                   0.59        -0.00          2.60813
================================================================================

 Hirshfeld supercell size:           2           2           2
Standard grid dimensions: 240 240 240
Fine grid dimensions:     240 240 240


     Hirshfeld Analysis
     ------------------
Species   Ion     Hirshfeld Charge (e)  Spin (hbar/2)
===================================================
  P        1                -0.25       -0.00
  P        2                -0.24       -0.00
  P        3                -0.24       -0.00
  P        4                -0.24        0.00
  P        5                -0.23        0.00
  P        6                -0.23        0.00
  P        7                -0.24        0.00
  P        8                -0.24       -0.00
  P        9                -0.24       -0.00
  P       10                -0.24        0.00
  P       11                -0.24       -0.00
  P       12                -0.24        0.00
  P       13                -0.24       -0.00
  P       14                -0.24       -0.00
  P       15                -0.24        0.00
  P       16                -0.24       -0.00
  P       17                -0.24        0.00
  P       18                -0.24       -0.00
  P       19                -0.24       -0.00
  P       20                -0.24        0.00
  P       21                -0.24       -0.00
  P       22                -0.24       -0.00
  P       23                -0.24        0.00
  P       24                -0.23       -0.00
  P       25                -0.24       -0.00
  P       26                -0.24       -0.00
  P       27                -0.24       -0.00
  P       28                -0.24       -0.00
  P       29                -0.24       -0.00
  P       30                -0.24       -0.00
  P       31                -0.24        0.00
  In       1                 0.24        0.00
  In       2                 0.19       -0.00
  In       3                 0.19       -0.00
  In       4                 0.24        0.00
  In       5                 0.13       -0.00
  In       6                 0.24        0.00
  In       7                 0.24        0.00
  In       8                 0.26       -0.00
  In       9                 0.23        0.00
  In      10                 0.23       -0.00
  In      11                 0.24       -0.00
  In      12                 0.24        0.00
  In      13                 0.24       -0.00
  In      14                 0.23        0.00
  In      15                 0.24        0.00
  In      16                 0.23       -0.00
  In      17                 0.23        0.00
  In      18                 0.24       -0.00
  In      19                 0.23       -0.00
  In      20                 0.24        0.00
  In      21                 0.24       -0.00
  In      22                 0.24        0.00
  In      23                 0.23        0.00
  In      24                 0.23       -0.00
  In      25                 0.24       -0.00
  In      26                 0.24       -0.00
  In      27                 0.24       -0.00
  In      28                 0.24       -0.00
  In      29                 0.23       -0.00
  In      30                 0.24       -0.00
  In      31                 0.24       -0.00
  In      32                 0.24       -0.00
===================================================

 
 A BibTeX formatted list of references used in this run has been written to 
 P_Vacancy_Migration_0->3_Singlepoints_5.bib
 
Initialisation time =     30.25 s
Calculation time    =   8670.57 s
Finalisation time   =    159.37 s
Total time          =   8860.20 s
Peak Memory Use     = 9620724 kB
 
Overall parallel efficiency rating: Terrible (34%)
 
Data was distributed by:-
G-vector (3-way); efficiency rating: Poor (37%)
k-point (36-way); efficiency rating: Very good (80%)
