96
Lattice="14.45404925834546 20.441112492360922 0.0 14.45404925834546 -20.441112492360922 0.0 -2.220446049250313e-16 0.0 4.1725246150929305" Properties=species:S:1:pos:R:3 core_positions="_JSON [[7.227024629172732, 0.0, 2.0862623075464652], [21.68107388751819, 0.0, 2.0862623075464652]]" burgers_vectors="_JSON [[-0.9834734833333334, 1.9669469666666668, -0.9834734833333334], [0.9834734833333334, -1.9669469666666668, 0.9834734833333334]]" dislocation_types="_JSON [\"1/6<112> 30 degree partial\", \"1/6<112> 30 degree partial\"]" dislocation_classes="_JSON [\"<class 'matscipy.dislocation.DiamondGlide30degreePartial'>\", \"<class 'matscipy.dislocation.DiamondGlide30degreePartial'>\"]" energy=-332.1543029393256 pbc="T T T"
In       9.58084469      -3.22099523       4.18879048
P        9.53994726      -0.69667921       3.93579680
In       5.99030270      -2.94813491       2.11872488
P        6.01729659      -0.39900952       2.09693955
In       8.46592671       0.30845093       1.82417255
P        8.58835721       2.86929495       2.02665583
In      11.45789250       0.84131928       0.25452319
P       12.26484283       3.16395328      -0.23490736
In       7.35132067       3.73947377      -0.02899260
P        7.26586746       6.31998598       0.03050115
In      10.96003835       3.84319264       1.82592693
P       10.81295319       6.38814192       2.09707545
In       9.63160885       7.28152903       0.02665096
P        9.63597640       9.83142197       0.01572943
In       6.05714484       7.16894013       2.12002647
P       20.50424678     -10.70511360       2.10955291
In       8.42767088      10.67395502       2.10396177
P       22.85554234      -7.21567436       2.12863526
In      12.04327032      10.67319796       0.03344336
P       12.02706598      13.22166507       0.03324374
In      21.64575351      -6.36691956       4.21659812
P       21.68487846      -3.81559172       4.22070125
In      10.81655229      14.05812913       2.12002043
P       25.29501699      -3.83085510       2.12095630
In      16.73999931      -2.89564572       4.31118582
P       16.80589292      -0.35268078       4.27560346
In      13.29442281      -2.58193747       2.20895445
P       13.58074429      -0.66039031       0.02119145
In      15.29648783       0.25090300       2.20849672
P       15.71099620       2.85981455       2.10973741
In      19.27838988       0.42764115       0.03507400
P       19.29512120       2.98259990      -0.01923901
In      14.65786973       3.96719234       0.01583299
P       14.47212621       6.49623889       0.03319906
In      18.10203888       3.84727934       2.05780273
P       18.05141497       6.39595042       2.12491531
In      16.89099538       7.30926221       0.04317444
P       16.86215120       9.84005311       0.02530134
In      13.20582034       7.26500537       2.11854120
P       13.23903881       9.81374573       2.11968294
In      15.64548458      10.66716631       2.11163936
P       15.63847868      13.21651676       2.11800259
In      19.27987950      10.64144527       0.02962906
P       19.23273044      13.18698791       0.02523399
In      14.43661168      14.06365734       0.03231982
P       14.43867804      16.61457737       0.03027732
In      18.04647358      14.05683590       2.11146383
P        3.59913581      -3.83089496       2.11852262
In      24.10554190      -2.98219016       4.20813687
P       24.08189202      -0.42703719       4.20286285
In      20.45707593      -2.99890745       2.13842173
P       20.44771611      -0.44213224       2.12163295
In      22.86448828       0.41800595       2.11831003
P       22.89895339       2.97736757       2.10969683
In      26.48572449       0.43785346       4.19794583
P       26.51172937       2.98915799       0.02409960
In      21.70768758       3.84702848       0.02236495
P       21.68163347       6.39767056       0.02992462
In      25.30530838       3.83686101       2.11035038
P       10.84554495     -14.05199660       2.11356485
In       9.63690817     -13.20165217       4.20056477
P        9.63563542     -10.65067725       4.20342696
In      20.46894716       7.23962636       2.11737589
P       20.48349228       9.79301555       2.11554113
In       8.43580899      -9.78943087       2.11855108
P        8.42668261      -7.22910788       2.12599781
In      12.05381301      -9.82968887       4.19356398
P       12.06344399      -7.26649001       4.15218302
In       7.17658362      -6.44150708       4.21692563
P        7.13531410      -3.88945660       4.20595417
In      10.84868526      -6.42968606       2.05668799
P       10.97592418      -3.84526602       2.11020506
In       2.39301679      -2.98980778       4.20466511
P        2.37947900      -0.43676603       0.00972843
In      13.24418135      17.47221989       2.11638913
P       27.68695267      -0.41525316       2.11126901
In       1.18603038       0.43217820       2.09695775
P       15.70147847     -17.45522976       2.10240967
In       4.78076599       0.41885196       0.02618853
P        4.88544202       2.96902556       0.02979516
In      14.47712015     -16.62046357       4.18867310
P       14.46573846     -14.06890228       4.19468544
In       3.67570686       3.82120867       2.11930614
P       18.08734510     -14.06973961       2.10883949
In      16.87228214     -13.21552869       4.19456500
P       16.88651425     -10.65979522       4.20142393
In      13.26062289     -13.21610838       2.10837652
P       13.27664848     -10.66142575       2.10830315
In      15.68431875      -9.78599347       2.11758145
P       15.67507141      -7.21973996       2.12122195
In      19.30798466      -9.84741825       4.19725817
P       19.26357391      -7.27846958       4.22193797
In      14.46808959      -6.40090833       4.20745372
P       14.36805752      -3.80827493       4.27557540
In      18.08729483      -6.38141319       2.14035066
P       18.01917838      -3.80860828       2.21266785
96
Lattice="14.45404925834546 20.441112492360922 0.0 14.45404925834546 -20.441112492360922 0.0 -2.220446049250313e-16 0.0 4.1725246150929305" Properties=species:S:1:pos:R:3 core_positions="_JSON [[7.227024629172732, 0.0, 2.0862623075464652], [21.68107388751819, 0.0, 2.0862623075464652]]" burgers_vectors="_JSON [[-0.9834734833333334, 1.9669469666666668, -0.9834734833333334], [0.9834734833333334, -1.9669469666666668, 0.9834734833333334]]" dislocation_types="_JSON [\"1/6<112> 30 degree partial\", \"1/6<112> 30 degree partial\"]" dislocation_classes="_JSON [\"<class 'matscipy.dislocation.DiamondGlide30degreePartial'>\", \"<class 'matscipy.dislocation.DiamondGlide30degreePartial'>\"]" energy=-330.6415198999139 pbc="T T T"
In       9.91939153      -2.59331538       3.59664245
P       10.04445701       0.00606179       3.45528612
In       6.20142436      -2.94096532       2.04909969
P        5.98592078      -0.37968128       2.18446187
In       8.26876742       0.63469023       1.71904484
P        8.22102866       3.12224242       2.23287724
In      11.74865110       0.63926764       1.17121198
P       11.89253807       3.06361118       0.46875336
In       7.05028027       3.98556459       0.14365972
P        7.15029234       6.50966904       0.08766458
In      10.65129174       3.82984570       2.51621566
P       10.80245771       6.38070077       2.46708316
In       9.61306133       7.23074814       0.35422077
P        9.66835335       9.78253045       0.13982763
In       5.91505198       7.31369893       2.14757261
P       20.46056180     -10.59759560       2.08992459
In       8.45447948      10.60108477       2.20291120
P       23.00341202      -7.28658918       2.10370532
In      12.03468728      10.78474007       0.16056356
P       12.11831657      13.31982610       0.07527710
In      21.82184189      -6.42602619       4.16796769
P       21.79611312      -3.87022001       4.05528057
In      10.91237685      14.14354138       2.15204542
P       25.36451767      -3.76161422       2.11282010
In      17.09422447      -2.87593828       3.96722214
P       17.43844710      -0.47289075       3.16219800
In      13.47715132      -3.04946904       1.66742754
P       13.99307263      -0.48120186       1.03414195
In      15.15584254       0.53845865       3.07813335
P       15.37964695       3.07412043       2.60222302
In      19.25711049       0.45233274       0.43439443
P       19.14873274       2.97939949       0.54038367
In      14.24129614       4.08273174       0.47472841
P       14.36133338       6.58568716       0.37268872
In      17.84026874       3.72504825       2.65913234
P       17.95483427       6.30554442       2.35724692
In      16.82913272       7.28525606       0.24539856
P       16.87833026       9.84872818       0.15070421
In      13.15354880       7.41009272       2.45104926
P       13.23032176       9.93729358       2.26401307
In      15.66918613      10.70232661       2.23653566
P       15.73768209      13.26274582       2.16964368
In      19.28155223      10.77403007       0.05633347
P       19.38917152      13.33818746       0.02386207
In      14.54273086      14.12294908       0.08061858
P       14.53370701      16.67380949       0.04775903
In      18.13894967      14.15159851       2.12711965
P        3.74285588      -3.73472561       2.08514289
In      24.16568242      -2.93161899       4.18888527
P       24.04866187      -0.37682131       4.33500848
In      20.52695063      -3.09732278       1.94837183
P       20.45901757      -0.55963528       2.37078079
In      22.80695880       0.43479183       2.25647801
P       22.73626797       3.01596409       2.28180132
In      26.45711439       0.47128165       4.29867287
P       26.41323887       3.02467933       0.13780239
In      21.57914683       3.95687911       0.20309898
P       21.62013015       6.49198016       0.23769674
In      25.16257897       3.83123874       2.23699898
P       10.76264629     -14.03674292       2.13858388
In       9.60588340     -13.11902427       4.21570892
P        9.62909397     -10.56120407       4.21261839
In      20.34360217       7.23861944       2.34749819
P       20.42250983       9.82191856       2.15903472
In       8.38126440      -9.77268262       2.13792891
P        8.45994441      -7.18566413       1.94084747
In      12.04507750      -9.67081682       4.07202885
P       12.07587203      -7.11598592       3.98724951
In       7.36185089      -6.19963590       4.01524434
P        7.53605633      -3.63952737       4.09831286
In      10.84223802      -6.29759199       1.89536691
P       10.99105873      -3.69922677       1.55278988
In       2.48886808      -2.92417702       4.17721610
P        2.40379419      -0.37651401       0.00905474
In      13.31849134      17.50692293       2.13286643
P       27.68154308      -0.38188878       2.19795041
In       1.17839094       0.45694958       2.09773190
P       15.55929644     -17.43223763       2.15422035
In       4.78906681       0.47908708       0.12101967
P        4.71522790       3.01953988       0.11213160
In      14.36797461     -16.56520255       4.24377384
P       14.36914435     -14.01770783       4.23075192
In       3.50167788       3.84737751       2.19051263
P       17.98662872     -14.04856371       2.13239861
In      16.78844198     -13.20849266       4.20844083
P       16.85929853     -10.66682147       4.14762874
In      13.16414864     -13.17775937       2.14373573
P       13.19398611     -10.61395387       2.00848195
In      15.63271147      -9.85566824       2.04945114
P       15.69592519      -7.30451243       1.84321759
In      19.25953885      -9.75999454       4.15477970
P       19.37098328      -7.22610331       4.04095421
In      14.53920006      -6.35977266       3.89380086
P       14.70775820      -3.81497259       3.76951608
In      18.11925962      -6.44252282       1.92591518
P       18.12796103      -3.87728571       1.88342832
96
Lattice="14.45404925834546 20.441112492360922 0.0 14.45404925834546 -20.441112492360922 0.0 -2.220446049250313e-16 0.0 4.1725246150929305" Properties=species:S:1:pos:R:3 core_positions="_JSON [[7.227024629172732, 0.0, 2.0862623075464652], [21.68107388751819, 0.0, 2.0862623075464652]]" burgers_vectors="_JSON [[-0.9834734833333334, 1.9669469666666668, -0.9834734833333334], [0.9834734833333334, -1.9669469666666668, 0.9834734833333334]]" dislocation_types="_JSON [\"1/6<112> 30 degree partial\", \"1/6<112> 30 degree partial\"]" dislocation_classes="_JSON [\"<class 'matscipy.dislocation.DiamondGlide30degreePartial'>\", \"<class 'matscipy.dislocation.DiamondGlide30degreePartial'>\"]" energy=-330.6296161594143 pbc="T T T"
In       9.91691788      -2.59441569       3.56147796
P       10.09335027       0.01183867       3.34909679
In       6.20525317      -2.94817611       2.03939934
P        5.97978711      -0.38957567       2.21739665
In       8.22928426       0.65452426       1.72118145
P        8.20642247       3.13384697       2.25019195
In      11.73465048       0.64103752       1.13577096
P       11.91425793       3.08140686       0.50919554
In       7.03980851       3.99351499       0.15863569
P        7.15006961       6.51405662       0.09194699
In      10.64899131       3.79485200       2.55737984
P       10.79959042       6.35642048       2.47365655
In       9.61759155       7.22078792       0.35907859
P        9.67259641       9.77609013       0.14479381
In       5.91569431       7.31996767       2.15074065
P       20.46251347     -10.59267633       2.09247720
In       8.45912551      10.59909787       2.20773082
P       23.00169290      -7.28746372       2.10278737
In      12.03703006      10.78663313       0.16178521
P       12.11851989      13.32120190       0.07549105
In      21.82074521      -6.42497459       4.16651015
P       21.79506586      -3.86884391       4.05252386
In      10.90999566      14.14259485       2.15218394
P       25.36349036      -3.76283069       2.11328013
In      17.09144481      -2.86931662       3.96196478
P       17.42804642      -0.46511463       3.15161628
In      13.47220253      -3.05170233       1.65048367
P       13.98045225      -0.48020176       1.01824018
In      15.13756475       0.53853132       3.06029305
P       15.38672152       3.07776786       2.61915955
In      19.25278725       0.44832938       0.42566305
P       19.15189688       2.97643249       0.54141294
In      14.26540595       4.09411419       0.49841863
P       14.36362324       6.59433732       0.38082468
In      17.84612430       3.72485918       2.66150367
P       17.95359807       6.30517649       2.35275711
In      16.83272756       7.29146004       0.24042706
P       16.88170954       9.85292756       0.15463486
In      13.14506478       7.40249451       2.46020984
P       13.22896319       9.93190857       2.26649454
In      15.66712733      10.69796098       2.24204053
P       15.73648216      13.25987048       2.16926643
In      19.28512625      10.77933544       0.05435190
P       19.38881159      13.34347683       0.02400149
In      14.54363985      14.12349221       0.07957736
P       14.53435895      16.67440738       0.04685338
In      18.13564314      14.15438068       2.12832609
P        3.74202550      -3.73216388       2.08411372
In      24.16554681      -2.93250792       4.18948618
P       24.04701084      -0.37766439       4.33426794
In      20.52479604      -3.09591995       1.94507502
P       20.45735395      -0.55796836       2.36543796
In      22.80612188       0.43567884       2.25542916
P       22.73771729       3.01681555       2.28578132
In      26.45531689       0.47008369       4.30161142
P       26.41335160       3.02308539       0.14013178
In      21.58156953       3.95825115       0.20748010
P       21.62041299       6.49350287       0.23818805
In      25.16409570       3.83003260       2.23911025
P       10.76323817     -14.03858836       2.13786447
In       9.60687584     -13.12114191       4.21457961
P        9.63174334     -10.56400100       4.21157951
In      20.34251621       7.23902227       2.34774255
P       20.42289680       9.82255088       2.15743404
In       8.38261807      -9.77754537       2.13694586
P        8.45984153      -7.19134957       1.93233321
In      12.04762868      -9.67334361       4.06880646
P       12.07879678      -7.11930751       3.98066801
In       7.36368928      -6.20169733       4.00541617
P        7.54130324      -3.64194597       4.08691102
In      10.84190519      -6.30477648       1.88827806
P       10.98577690      -3.70889786       1.52601624
In       2.48796087      -2.91942789       4.17671781
P        2.40706844      -0.37204375       0.01293439
In      13.31741953      17.50472985       2.13206173
P       27.67901484      -0.38422437       2.20118394
In       1.17543717       0.45465135       2.09998836
P       15.55645035     -17.43439728       2.15810003
In       4.79496222       0.47932310       0.15320801
P        4.71333399       3.01609837       0.12361532
In      14.36694876     -16.56588539       4.24736279
P       14.36982746     -14.01851439       4.23155517
In       3.49889076       3.84014929       2.20014438
P       17.99100167     -14.05501384       2.13664590
In      16.79122779     -13.21423531       4.21213262
P       16.86330804     -10.67168895       4.14919158
In      13.16439336     -13.17914468       2.14398891
P       13.19628020     -10.61620770       2.00615906
In      15.63630940      -9.86121487       2.05050548
P       15.69776512      -7.30905696       1.83844401
In      19.26084337      -9.75559486       4.15661872
P       19.37001794      -7.22230087       4.03944858
In      14.54259318      -6.36242770       3.88805011
P       14.70868330      -3.81769415       3.75529347
In      18.11802259      -6.43955249       1.92394481
P       18.12451570      -3.87362377       1.87918408
96
Lattice="14.45404925834546 20.441112492360922 0.0 14.45404925834546 -20.441112492360922 0.0 -2.220446049250313e-16 0.0 4.1725246150929305" Properties=species:S:1:pos:R:3 core_positions="_JSON [[7.227024629172732, 0.0, 2.0862623075464652], [21.68107388751819, 0.0, 2.0862623075464652]]" burgers_vectors="_JSON [[-0.9834734833333334, 1.9669469666666668, -0.9834734833333334], [0.9834734833333334, -1.9669469666666668, 0.9834734833333334]]" dislocation_types="_JSON [\"1/6<112> 30 degree partial\", \"1/6<112> 30 degree partial\"]" dislocation_classes="_JSON [\"<class 'matscipy.dislocation.DiamondGlide30degreePartial'>\", \"<class 'matscipy.dislocation.DiamondGlide30degreePartial'>\"]" energy=-330.6366558850043 pbc="T T T"
In       9.91879983      -2.59461189       3.58297902
P       10.06133455       0.00690326       3.41932858
In       6.20289090      -2.94396025       2.04577413
P        5.98386616      -0.38336768       2.19579997
In       8.25567598       0.64136036       1.72032769
P        8.21705924       3.12635351       2.23810875
In      11.74246695       0.63777595       1.16209182
P       11.89791998       3.06672740       0.47796303
In       7.04749212       3.98808620       0.14812140
P        7.14993195       6.51115838       0.08881441
In      10.65110780       3.82084058       2.52558942
P       10.80162394       6.37437846       2.46818403
In       9.61403258       7.22782834       0.35498565
P        9.66957961       9.78062096       0.14120290
In       5.91515380       7.31579272       2.14845753
P       20.46108445     -10.59592397       2.09049413
In       8.45586494      10.60049162       2.20427369
P       23.00293270      -7.28687533       2.10343084
In      12.03538142      10.78502574       0.16123822
P       12.11837701      13.31996937       0.07541530
In      21.82157331      -6.42568600       4.16752723
P       21.79578945      -3.86978282       4.05439022
In      10.91173740      14.14305604       2.15217056
P       25.36434486      -3.76220843       2.11310482
In      17.09329965      -2.87435019       3.96555191
P       17.43462132      -0.47088960       3.16030013
In      13.47586633      -3.05118149       1.66112266
P       13.98842073      -0.48115827       1.03062904
In      15.14973407       0.53804437       3.07383517
P       15.38107718       3.07476480       2.60645726
In      19.25645215       0.45113174       0.43104737
P       19.14937639       2.97834375       0.54002323
In      14.24698953       4.08540210       0.48082612
P       14.36149970       6.58770769       0.37383461
In      17.84147914       3.72430045       2.65909817
P       17.95436077       6.30487670       2.35604687
In      16.82980005       7.28616310       0.24406533
P       16.87961851       9.84923645       0.15152942
In      13.15124686       7.40846044       2.45234657
P       13.23027203       9.93611886       2.26489921
In      15.66919260      10.70078522       2.23776908
P       15.73740078      13.26159936       2.16928461
In      19.28273118      10.77556907       0.05566450
P       19.38910857      13.33974845       0.02367672
In      14.54301482      14.12267836       0.08009284
P       14.53397496      16.67358564       0.04727682
In      18.13788019      14.15235743       2.12734879
P        3.74264123      -3.73408280       2.08471468
In      24.16574763      -2.93215397       4.18924233
P       24.04801801      -0.37735409       4.33497005
In      20.52631985      -3.09694535       1.94729865
P       20.45829150      -0.55911974       2.36893364
In      22.80650824       0.43479444       2.25632468
P       22.73640881       3.01594861       2.28289464
In      26.45642000       0.47054693       4.29996197
P       26.41335346       3.02371511       0.13854392
In      21.57957628       3.95715338       0.20422086
P       21.61998805       6.49228650       0.23778731
In      25.16291024       3.83014935       2.23766983
P       10.76277170     -14.03809602       2.13798715
In       9.60616219     -13.12042553       4.21494455
P        9.63012014     -10.56284507       4.21187478
In      20.34303251       7.23858472       2.34756432
P       20.42263956       9.82191229       2.15845000
In       8.38184997      -9.77495227       2.13723869
P        8.45989787      -7.18824435       1.93703339
In      12.04613690      -9.67249402       4.07017602
P       12.07699282      -7.11797538       3.98410364
In       7.36257864      -6.20079853       4.01097815
P        7.53811853      -3.64086450       4.09430405
In      10.84218035      -6.30102648       1.89199729
P       10.98953229      -3.70345788       1.54210612
In       2.48854801      -2.92286637       4.17699138
P        2.40483357      -0.37530263       0.01054089
In      13.31831832      17.50595120       2.13243792
P       27.68067627      -0.38292054       2.19932064
In       1.17735972       0.45595903       2.09867913
P       15.55878109     -17.43329787       2.15505281
In       4.79096921       0.47882445       0.13210690
P        4.71521422       3.01811219       0.11533131
In      14.36789930     -16.56614454       4.24445810
P       14.36942777     -14.01874151       4.23063431
In       3.50125904       3.84467157       2.19307094
P       17.98816891     -14.05105987       2.13358939
In      16.78938696     -13.21108783       4.20946818
P       16.86078770     -10.66910768       4.14781054
In      13.16422843     -13.17910817       2.14342450
P       13.19492532     -10.61558836       2.00698563
In      15.63406402      -9.85827497       2.04943070
P       15.69670206      -7.30677239       1.84118331
In      19.25990489      -9.75848169       4.15511431
P       19.37068515      -7.22480069       4.03993855
In      14.54050291      -6.36143022       3.89148120
P       14.70830729      -3.81673404       3.76417889
In      18.11879612      -6.44156751       1.92465637
P       18.12695858      -3.87619584       1.88196491
96
Lattice="14.45404925834546 20.441112492360922 0.0 14.45404925834546 -20.441112492360922 0.0 -2.220446049250313e-16 0.0 4.1725246150929305" Properties=species:S:1:pos:R:3 core_positions="_JSON [[7.227024629172732, 0.0, 2.0862623075464652], [21.68107388751819, 0.0, 2.0862623075464652]]" burgers_vectors="_JSON [[-0.9834734833333334, 1.9669469666666668, -0.9834734833333334], [0.9834734833333334, -1.9669469666666668, 0.9834734833333334]]" dislocation_types="_JSON [\"1/6<112> 30 degree partial\", \"1/6<112> 30 degree partial\"]" dislocation_classes="_JSON [\"<class 'matscipy.dislocation.DiamondGlide30degreePartial'>\", \"<class 'matscipy.dislocation.DiamondGlide30degreePartial'>\"]" energy=-330.6350529596135 pbc="T T T"
In       9.92146952      -2.59500498       3.58729139
P       10.05363356       0.00542866       3.44236642
In       6.20315468      -2.94383586       2.04624789
P        5.98651760      -0.38253373       2.18660569
In       8.26674699       0.63558320       1.71972828
P        8.22097319       3.12274563       2.23195859
In      11.74718433       0.63346880       1.17511406
P       11.88814232       3.05710101       0.46339635
In       7.05019541       3.98505290       0.14245815
P        7.14912517       6.50899297       0.08538025
In      10.65093052       3.83102706       2.51088670
P       10.80228967       6.38094741       2.46394465
In       9.61188960       7.22975522       0.35122062
P        9.66832255       9.78103154       0.13865353
In       5.91394845       7.31279315       2.14528462
P       20.45995187     -10.59867246       2.08772057
In       8.45428300      10.59876180       2.20181593
P       23.00406548      -7.28909801       2.10284548
In      12.03471298      10.78283855       0.16020919
P       12.11856794      13.31791391       0.07469179
In      21.82237748      -6.42860763       4.16702141
P       21.79630352      -3.87288163       4.05350642
In      10.91292563      14.14165167       2.15155050
P       25.36452926      -3.76356506       2.11199480
In      17.09669855      -2.87543708       3.96480865
P       17.44048826      -0.47182923       3.15811237
In      13.47950581      -3.05362209       1.66168925
P       13.99426848      -0.48294521       1.03968017
In      15.15630689       0.53773821       3.08359236
P       15.37796508       3.07318499       2.59959329
In      19.25071073       0.45059817       0.44268064
P       19.14741016       2.97796101       0.54395898
In      14.23632722       4.07872521       0.47126638
P       14.35992648       6.58228791       0.37016344
In      17.83863427       3.72352616       2.66208237
P       17.95337575       6.30366174       2.35798364
In      16.82733024       7.28287232       0.24599352
P       16.87811195       9.84652912       0.14928781
In      13.15405269       7.40933317       2.44810100
P       13.23078569       9.93638330       2.26338698
In      15.66973485      10.70135570       2.23494639
P       15.73793433      13.26154720       2.16831997
In      19.28144395      10.77194649       0.05435489
P       19.38958338      13.33627574       0.02163457
In      14.54274734      14.12127886       0.07941703
P       14.53411368      16.67202965       0.04681829
In      18.13929293      14.14986283       2.12507685
P        3.74379866      -3.73647914       2.08306107
In      24.16554192      -2.93377853       4.18797743
P       24.04767667      -0.37914064       4.33571294
In      20.52671294      -3.10092090       1.94637184
P       20.45825971      -0.56433740       2.37384271
In      22.80525901       0.43175025       2.25738554
P       22.73514620       3.01294451       2.28035986
In      26.45641759       0.46866918       4.29798648
P       26.41300239       3.02193863       0.13641112
In      21.57843622       3.95443008       0.20177962
P       21.61936510       6.48944071       0.23752453
In      25.16174281       3.82781967       2.23569683
P       10.76187814     -14.04010181       2.13597218
In       9.60537738     -13.12202889       4.21300089
P        9.62896126     -10.56423983       4.20989797
In      20.34242649       7.23573382       2.34761736
P       20.42200530       9.81906098       2.15711486
In       8.38087977      -9.77595810       2.13533938
P        8.45981794      -7.18890886       1.93653844
In      12.04507193      -9.67359063       4.06813985
P       12.07647064      -7.11886418       3.98287007
In       7.36242847      -6.20177371       4.01080416
P        7.53863987      -3.64171891       4.09506874
In      10.84217011      -6.30148184       1.89091148
P       10.99249817      -3.70292073       1.54470339
In       2.48942168      -2.92609844       4.17523505
P        2.40446604      -0.37847046       0.00751045
In      13.31861407      17.50475074       2.13200581
P       27.68143072      -0.38416137       2.19715470
In       1.17833829       0.45442296       2.09592304
P       15.55948993     -17.43491378       2.15137981
In       4.79003994       0.47679459       0.12303597
P        4.71599701       3.01706648       0.10968186
In      14.36805117     -16.56830399       4.24083851
P       14.36863231     -14.02085960       4.22807153
In       3.50194323       3.84446718       2.18778723
P       17.98638452     -14.05148994       2.12998076
In      16.78802466     -13.21183733       4.20600961
P       16.85931588     -10.67010963       4.14503354
In      13.16342001     -13.18118389       2.14105639
P       13.19354404     -10.61733450       2.00482549
In      15.63245665      -9.85955899       2.04678126
P       15.69578856      -7.30831074       1.84017343
In      19.25891124      -9.76101671       4.15245353
P       19.37084185      -7.22729260       4.03802215
In      14.54014142      -6.36262355       3.89075959
P       14.71134584      -3.81827520       3.76389720
In      18.11829280      -6.44496682       1.92282621
P       18.12740884      -3.87965244       1.88132719
96