96
Lattice="14.45404925834546 20.441112492360922 0.0 14.45404925834546 -20.441112492360922 0.0 -2.220446049250313e-16 0.0 4.1725246150929305" Properties=species:S:1:pos:R:3 core_positions="_JSON [[7.227024629172732, 0.0, 2.0862623075464652], [21.68107388751819, 0.0, 2.0862623075464652]]" burgers_vectors="_JSON [[-0.9834734833333334, -0.9834734833333334, 1.9669469666666668], [0.9834734833333334, 0.9834734833333334, -1.9669469666666668]]" dislocation_types="_JSON [\"1/6<112> 90 degree partial\", \"1/6<112> 90 degree partial\"]" dislocation_classes="_JSON [\"<class 'matscipy.dislocation.DiamondGlide90degreePartial'>\", \"<class 'matscipy.dislocation.DiamondGlide90degreePartial'>\"]" energy=-329.70388242347883 pbc="T T T"
In       9.37233549      -3.29248245       0.00000000
P        8.74853359      -0.80350797       0.00000000
In       5.91986673      -3.06031930       2.08626231
P        6.02662221      -0.56594963       2.08626231
In       9.64127763       0.18611323       2.08626231
P        8.97893392       2.76611557       2.08626231
In      13.40462270       0.36799760       0.00000000
P       12.55154637       2.88522180       0.00000000
In       7.72070676       3.61708239       0.00000000
P        7.37239298       6.21177003       0.00000000
In      11.30218272       3.83218163       2.08626231
P       10.96078411       6.37545627       2.08626231
In       9.70762092       7.19641913       0.00000000
P        9.58672109       9.77676804       0.00000000
In       6.18201115       7.17708517       2.08626231
P       20.50963716     -10.66298503       2.08626231
In       8.40925838      10.70514598       2.08626231
P       22.67790507      -7.12900431       2.08626231
In      11.95262078      10.67801676       0.00000000
P       11.81129755      13.25257052       0.00000000
In      21.48680168      -6.15013091       0.00000000
P       21.34885427      -3.55372775       0.00000000
In      10.61611107      14.16866343       2.08626231
P       25.00580612      -3.69540232       2.08626231
In      16.39704017      -2.91268390       0.00000000
P       15.91828780      -0.36433660       0.00000000
In      12.88027685      -3.13753038       2.08626231
P       12.27623206      -0.59322076       2.08626231
In      16.99607103       0.59621640       2.08626231
P       16.02663495       3.01595422       2.08626231
In      20.40890137       0.96601574       0.00000000
P       19.47619855       3.29653246       0.00000000
In      14.81532242       3.96880406       0.00000000
P       14.54909648       6.49101741       0.00000000
In      18.29419800       4.07219602       2.08626231
P       18.19619694       6.57147381       2.08626231
In      16.93794908       7.32932330       0.00000000
P       16.76955636       9.84449657       0.00000000
In      13.30961046       7.31094118       2.08626231
P       13.16885435       9.84431610       2.08626231
In      15.56067646      10.68356622       2.08626231
P       15.43003050      13.22313065       2.08626231
In      19.17958008      10.61724321       0.00000000
P       19.02596498      13.14288018       0.00000000
In      14.22394933      14.07560877       0.00000000
P       14.20149936      16.62844491       0.00000000
In      17.83111645      14.05438623       2.08626231
P        3.43351895      -3.84206497       2.08626231
In      23.83459092      -2.80596588       0.00000000
P       23.94667509      -0.26678611       0.00000000
In      19.94744416      -2.83467305       2.08626231
P       19.64099105      -0.19620241       2.08626231
In      22.69184003       0.58087253       2.08626231
P       22.95101291       3.12881217       2.08626231
In      26.38231849       0.46191926       0.00000000
P       12.05852508     -17.46020273       0.00000000
In      21.86973036       4.07280619       0.00000000
P       21.87892001       6.58466068       0.00000000
In      25.38345435       3.85842499       2.08626231
P       11.01916674     -14.04757299       2.08626231
In       9.85543067     -13.15226942       0.00000000
P        9.71561753     -10.63958563       0.00000000
In      20.61631853       7.33535082       2.08626231
P       20.44556117       9.84228245       2.08626231
In       8.44016256      -9.87490916       2.08626231
P        8.30787733      -7.37393377       2.08626231
In      12.15060017      -9.90673649       0.00000000
P       11.99644997      -7.40146929       0.00000000
In       7.01587860      -6.60081400       0.00000000
P        6.97744921      -4.06999710       0.00000000
In      10.75279552      -6.62291302       2.08626231
P       10.57801363      -4.10493888       2.08626231
In      16.64396307      17.43289395       0.00000000
P        2.38416388      -0.43558473       0.00000000
In      13.01544198      17.49998608       2.08626231
P       27.56579610      -0.39043820       2.08626231
In       1.12650729       0.41540655       2.08626231
P       15.80865268     -17.45569138       2.08626231
In       4.91770492       0.29051669       0.00000000
P        5.18066348       2.86416312       0.00000000
In      14.50902213     -16.65005404       0.00000000
P       14.63764164     -14.10752197       0.00000000
In       3.90400155       3.72524197       2.08626231
P       18.25126353     -14.14672222       2.08626231
In      17.05099823     -13.26250080       0.00000000
P       16.95132175     -10.69616272       0.00000000
In      13.43797103     -13.27094347       2.08626231
P       13.35385343     -10.73565623       2.08626231
In      15.73235735      -9.85476015       2.08626231
P       15.58431639      -7.31630251       2.08626231
In      19.31669467      -9.76278090       0.00000000
P       19.16901091      -7.18999950       0.00000000
In      14.35873123      -6.48797938       0.00000000
P       14.09609952      -3.93764096       0.00000000
In      17.93731963      -6.38495948       2.08626231
P       17.59719488      -3.81447760       2.08626231
96
Lattice="14.45404925834546 20.441112492360922 0.0 14.45404925834546 -20.441112492360922 0.0 -2.220446049250313e-16 0.0 4.1725246150929305" Properties=species:S:1:pos:R:3 core_positions="_JSON [[7.227024629172732, 0.0, 2.0862623075464652], [21.68107388751819, 0.0, 2.0862623075464652]]" burgers_vectors="_JSON [[-0.9834734833333334, -0.9834734833333334, 1.9669469666666668], [0.9834734833333334, 0.9834734833333334, -1.9669469666666668]]" dislocation_types="_JSON [\"1/6<112> 90 degree partial\", \"1/6<112> 90 degree partial\"]" dislocation_classes="_JSON [\"<class 'matscipy.dislocation.DiamondGlide90degreePartial'>\", \"<class 'matscipy.dislocation.DiamondGlide90degreePartial'>\"]" energy=-329.64863734593587 pbc="T T T"
In       9.34175253      -3.27633208       0.00000008
P        8.70921300      -0.78299439       0.00000019
In       5.89778843      -3.06680596       2.08626214
P        6.01848152      -0.57115806       2.08626181
In       9.61975388       0.19412008       2.08626247
P        8.99506152       2.77946384       2.08626271
In      13.33630171       0.36433188       0.00000015
P       12.55758953       2.88685439       0.00000034
In       7.75093881       3.64017473       0.00000041
P        7.43211426       6.23174363      -0.00000008
In      11.31598479       3.83315128       2.08626266
P       11.02652527       6.37091437       2.08626234
In       9.77670727       7.19076609       0.00000000
P        9.62882848       9.77467817       0.00000022
In       6.24519675       7.19549092       2.08626220
P       20.56261825     -10.65049803       2.08626251
In       8.45815295      10.71912795       2.08626253
P       22.67813871      -7.10582983       2.08626231
In      11.99173720      10.67469580       0.00000028
P       11.80268028      13.25987969      -0.00000006
In      21.48212770      -6.10633920      -0.00000000
P       21.31837241      -3.49960942       0.00000006
In      10.61102911      14.20106433       2.08626223
P       24.99724946      -3.66483581       2.08626227
In      16.38464002      -2.84807870       0.00000012
P       15.84401932      -0.30847433       0.00000009
In      12.85932750      -3.14871676       2.08626245
P       12.22430241      -0.60912550       2.08626247
In      16.90701188       0.66011732       2.08626239
P       16.07288572       3.09185429       2.08626265
In      20.39484749       0.86980557       0.00000011
P       19.54312354       3.24942312       0.00000020
In      14.83559927       3.94824310       0.00000038
P       14.63126735       6.46200836       0.00000010
In      18.38248485       4.03201331       2.08626253
P       18.26412034       6.53777745       2.08626238
In      17.01909726       7.29536784       0.00000005
P       16.77929634       9.81232884       0.00000021
In      13.39170529       7.26719334       2.08626239
P       13.19909622       9.81072601       2.08626259
In      15.57612143      10.67477139       2.08626251
P       15.42031512      13.21950282       2.08626210
In      19.17217413      10.61922771       0.00000050
P       19.02001146      13.14291720       0.00000002
In      14.21300492      14.08179567      -0.00000023
P       14.18441864      16.63631601      -0.00000009
In      17.81993380      14.05308283       2.08626237
P        3.41206622      -3.84236582       2.08626232
In      23.82623280      -2.77640031      -0.00000003
P       24.06808867      -0.23536213      -0.00000004
In      19.85890668      -2.82824610       2.08626239
P       19.42031883      -0.20022367       2.08626243
In      22.81342205       0.63848978       2.08626229
P       23.01910007       3.16535266       2.08626246
In      26.50811350       0.50992589      -0.00000015
P       12.13407500     -17.41162445      -0.00000019
In      21.90899393       4.07013881       0.00000019
P       21.90324567       6.58204216       0.00000037
In      25.44715990       3.89358082       2.08626210
P       11.06245903     -14.01371431       2.08626155
In       9.88082100     -13.14721759      -0.00000085
P        9.73964949     -10.63800613      -0.00000116
In      20.65406506       7.35027769       2.08626275
P       20.45243836       9.85312351       2.08626269
In       8.45514454      -9.89163668       2.08626105
P        8.29695323      -7.39300750       2.08626115
In      12.17359557      -9.88567541       0.00000048
P       12.00303434      -7.37957147       0.00000045
In       7.01401030      -6.61178485      -0.00000126
P        6.95670292      -4.07841494      -0.00000023
In      10.73381803      -6.62344038       2.08626276
P       10.55202734      -4.10352389       2.08626242
In      16.62509960      17.42882721       0.00000002
P        2.41245197      -0.43478154      -0.00000018
In      13.01416554      17.51894907       2.08626222
P       27.66624737      -0.37026539       2.08626217
In       1.20965492       0.46185949       2.08626213
P       15.87641233     -17.41234589       2.08626217
In       4.92878218       0.30563092      -0.00000046
P        5.22797255       2.88272572      -0.00000018
In      14.57859419     -16.60940232      -0.00000010
P       14.68252236     -14.07399307      -0.00000009
In       3.96185541       3.76019539       2.08626208
P       18.31125439     -14.11677361       2.08626212
In      17.10124176     -13.25308467      -0.00000021
P       16.98769322     -10.68921139       0.00000015
In      13.48028268     -13.24082064       2.08626225
P       13.38313696     -10.70892891       2.08626273
In      15.76499205      -9.84616000       2.08626246
P       15.58801366      -7.30482484       2.08626231
In      19.36010525      -9.77357206       0.00000022
P       19.18271459      -7.20014054       0.00000004
In      14.36618552      -6.45232912      -0.00000001
P       14.09472116      -3.90281012       0.00000014
In      17.94560226      -6.40167408       2.08626235
P       17.53449192      -3.84283885       2.08626243
96
Lattice="14.45404925834546 20.441112492360922 0.0 14.45404925834546 -20.441112492360922 0.0 -2.220446049250313e-16 0.0 4.1725246150929305" Properties=species:S:1:pos:R:3 core_positions="_JSON [[7.227024629172732, 0.0, 2.0862623075464652], [21.68107388751819, 0.0, 2.0862623075464652]]" burgers_vectors="_JSON [[-0.9834734833333334, -0.9834734833333334, 1.9669469666666668], [0.9834734833333334, 0.9834734833333334, -1.9669469666666668]]" dislocation_types="_JSON [\"1/6<112> 90 degree partial\", \"1/6<112> 90 degree partial\"]" dislocation_classes="_JSON [\"<class 'matscipy.dislocation.DiamondGlide90degreePartial'>\", \"<class 'matscipy.dislocation.DiamondGlide90degreePartial'>\"]" energy=-329.41855882588135 pbc="T T T"
In       9.32904502      -3.26936543       0.00000008
P        8.67869290      -0.77232088       0.00000017
In       5.88611902      -3.07042524       2.08626214
P        6.00742781      -0.57496430       2.08626182
In       9.59910949       0.19712518       2.08626246
P        9.00152851       2.78342483       2.08626273
In      13.24652070       0.36698435       0.00000012
P       12.55758026       2.88904747       0.00000037
In       7.75748377       3.63640444       0.00000043
P        7.45357288       6.22412083      -0.00000009
In      11.32602913       3.82599544       2.08626269
P       11.04972737       6.36076243       2.08626232
In       9.80057190       7.17844377      -0.00000001
P        9.63712507       9.76668874       0.00000022
In       6.26700082       7.18282972       2.08626219
P       20.57554081     -10.66394406       2.08626251
In       8.46776186      10.71401775       2.08626253
P       22.67682869      -7.11305822       2.08626231
In      11.99472924      10.67636596       0.00000030
P       11.79102013      13.26549379      -0.00000006
In      21.47012569      -6.11242630      -0.00000001
P       21.29450445      -3.48971506       0.00000003
In      10.60127086      14.22353778       2.08626222
P       24.98292829      -3.64767433       2.08626225
In      16.43584467      -2.74532571       0.00000013
P       15.72661844      -0.24479201       0.00000000
In      12.87706355      -3.16517840       2.08626243
P       12.17664558      -0.63013528       2.08626244
In      16.76335615       0.72400930       2.08626228
P       16.10688636       3.15767697       2.08626272
In      20.25207114       0.73445190       0.00000007
P       19.55626679       3.17056652       0.00000029
In      14.85704916       3.90920663       0.00000046
P       14.64851223       6.42549043       0.00000006
In      18.43661370       4.02667371       2.08626262
P       18.26732218       6.53538631       2.08626235
In      17.01906600       7.29092854       0.00000001
P       16.77145080       9.81000687       0.00000024
In      13.42064429       7.24281932       2.08626234
P       13.19919043       9.79716445       2.08626260
In      15.56745342      10.67817246       2.08626255
P       15.40851507      13.22598554       2.08626210
In      19.16476144      10.61646800       0.00000056
P       19.01343457      13.14000116       0.00000004
In      14.19729157      14.09377996      -0.00000024
P       14.15764756      16.65056964      -0.00000007
In      17.81218543      14.05207511       2.08626239
P        3.39761776      -3.84232533       2.08626233
In      23.80194587      -2.80306359      -0.00000006
P       24.16308484      -0.26221150      -0.00000008
In      19.82514843      -2.88705380       2.08626236
P       19.18075071      -0.28970571       2.08626239
In      23.12634614       0.74319589       2.08626223
P       23.05098654       3.21812127       2.08626254
In      26.59065794       0.53512228      -0.00000014
P       12.15662972     -17.38482133      -0.00000024
In      21.88984515       4.04660588       0.00000028
P       21.87872264       6.55658590       0.00000039
In      25.48030438       3.94375442       2.08626204
P       11.08813714     -13.97412744       2.08626145
In       9.86339176     -13.17334758      -0.00000096
P        9.73351404     -10.66533510      -0.00000118
In      20.65094979       7.35534345       2.08626278
P       20.45463401       9.85766566       2.08626275
In       8.46358937      -9.90985988       2.08626103
P        8.28488562      -7.41003456       2.08626114
In      12.16408322      -9.88223027       0.00000045
P       12.00088781      -7.37101629       0.00000047
In       7.00870295      -6.62040466      -0.00000127
P        6.94644218      -4.08533654      -0.00000023
In      10.71339258      -6.62485068       2.08626279
P       10.55565332      -4.09953992       2.08626241
In      16.60346912      17.42555761       0.00000003
P        2.42027379      -0.43928672      -0.00000017
In      12.99733559      17.54775927       2.08626224
P       27.73082551      -0.35436298       2.08626218
In       1.25407983       0.47935277       2.08626214
P       15.88836790     -17.40175634       2.08626219
In       4.92109570       0.30666589      -0.00000045
P        5.23663573       2.88446892      -0.00000018
In      14.59614251     -16.60238575      -0.00000009
P       14.69941158     -14.07007434       0.00000000
In       3.96708585       3.76155790       2.08626208
P       18.33045748     -14.11866233       2.08626213
In      17.11826305     -13.26368995      -0.00000020
P       16.99309140     -10.69813101       0.00000012
In      13.51083520     -13.22017764       2.08626237
P       13.38916444     -10.69131133       2.08626272
In      15.77284190      -9.84050810       2.08626242
P       15.58694509      -7.29476579       2.08626231
In      19.37030076      -9.79475781       0.00000022
P       19.17360515      -7.22242275       0.00000003
In      14.36609936      -6.43054680      -0.00000001
P       14.14858428      -3.87530190       0.00000011
In      17.94274634      -6.40432749       2.08626234
P       17.49568788      -3.85829610       2.08626244
96
Lattice="14.45404925834546 20.441112492360922 0.0 14.45404925834546 -20.441112492360922 0.0 -2.220446049250313e-16 0.0 4.1725246150929305" Properties=species:S:1:pos:R:3 core_positions="_JSON [[7.227024629172732, 0.0, 2.0862623075464652], [21.68107388751819, 0.0, 2.0862623075464652]]" burgers_vectors="_JSON [[-0.9834734833333334, -0.9834734833333334, 1.9669469666666668], [0.9834734833333334, 0.9834734833333334, -1.9669469666666668]]" dislocation_types="_JSON [\"1/6<112> 90 degree partial\", \"1/6<112> 90 degree partial\"]" dislocation_classes="_JSON [\"<class 'matscipy.dislocation.DiamondGlide90degreePartial'>\", \"<class 'matscipy.dislocation.DiamondGlide90degreePartial'>\"]" energy=-329.3538185652849 pbc="T T T"
In       9.32608821      -3.26501851       0.00000008
P        8.67062757      -0.76647618       0.00000016
In       5.88320442      -3.07066746       2.08626214
P        5.99691314      -0.57557910       2.08626184
In       9.59720855       0.19754602       2.08626245
P        9.01086539       2.78309329       2.08626273
In      13.23637327       0.35851676       0.00000010
P       12.56928575       2.88473895       0.00000036
In       7.76172621       3.62709739       0.00000043
P        7.46508690       6.21210570      -0.00000010
In      11.34248858       3.81842988       2.08626268
P       11.06140132       6.35396936       2.08626231
In       9.81181002       7.17068815      -0.00000002
P        9.64091978       9.76193775       0.00000023
In       6.27947316       7.16681051       2.08626218
P       20.57594710     -10.68039238       2.08626251
In       8.46808025      10.70338211       2.08626254
P       22.68603570      -7.13418317       2.08626230
In      11.99336476      10.68274147       0.00000031
P       11.78442296      13.27469275      -0.00000006
In      21.46430141      -6.16795145      -0.00000002
P       21.26863193      -3.53277562       0.00000001
In      10.59574192      14.24669060       2.08626222
P       24.97834953      -3.62242376       2.08626225
In      16.48722065      -2.68830176       0.00000016
P       15.71018598      -0.21905803      -0.00000007
In      12.88783093      -3.17163176       2.08626242
P       12.17219979      -0.63647694       2.08626243
In      16.71218961       0.75163280       2.08626219
P       16.13847417       3.17635671       2.08626275
In      20.10811735       0.55776712       0.00000001
P       19.54219807       3.05638632       0.00000037
In      14.88281874       3.88207229       0.00000049
P       14.64998267       6.40530885      -0.00000000
In      18.45729113       4.04965994       2.08626271
P       18.25846881       6.56019855       2.08626229
In      16.99977292       7.31095281      -0.00000006
P       16.76356798       9.82568400       0.00000026
In      13.43102804       7.23853933       2.08626228
P       13.19619554       9.79897791       2.08626261
In      15.55844150      10.68858109       2.08626258
P       15.39752539      13.23811199       2.08626210
In      19.16174065      10.62218763       0.00000059
P       19.00878510      13.14445636       0.00000004
In      14.18503269      14.11322744      -0.00000024
P       14.13312248      16.67615173      -0.00000005
In      17.80579586      14.05430418       2.08626238
P        3.39230519      -3.84037169       2.08626233
In      23.76158260      -2.86163530      -0.00000006
P       24.12664628      -0.30410996      -0.00000006
In      19.83625428      -2.95811040       2.08626233
P       19.03453648      -0.41370854       2.08626235
In      23.66871187       0.99338997       2.08626225
P       23.07142596       3.36339620       2.08626260
In      26.55606164       0.53565200      -0.00000009
P       12.13801912     -17.40333945      -0.00000025
In      21.83657748       4.06746500       0.00000034
P       21.85468544       6.56409604       0.00000036
In      25.52585621       3.99151027       2.08626199
P       11.12525378     -13.93696925       2.08626151
In       9.85580837     -13.20903820      -0.00000089
P        9.72014100     -10.69801367      -0.00000114
In      20.64687962       7.37015049       2.08626274
P       20.45792157       9.86760831       2.08626277
In       8.47236367      -9.91963707       2.08626106
P        8.28051770      -7.41570222       2.08626115
In      12.14564187      -9.88401910       0.00000041
P       11.99579027      -7.36981847       0.00000045
In       7.00595992      -6.62064315      -0.00000125
P        6.94380841      -4.08512908      -0.00000023
In      10.70382756      -6.62189529       2.08626277
P       10.55858424      -4.09492195       2.08626241
In      16.59040060      17.42791480       0.00000004
P        2.40627958      -0.43782837      -0.00000015
In      12.98363228      17.60867663       2.08626226
P       27.70484615      -0.30869249       2.08626222
In       1.23037100       0.46948394       2.08626216
P       15.86949049     -17.41741247       2.08626218
In       4.90666581       0.30340428      -0.00000043
P        5.23014108       2.88131301      -0.00000017
In      14.59254254     -16.61806384      -0.00000010
P       14.71584520     -14.08099601       0.00000001
In       3.94784214       3.75356159       2.08626209
P       18.34160305     -14.12786989       2.08626215
In      17.13120944     -13.27559650      -0.00000017
P       16.99582173     -10.70726039       0.00000010
In      13.54689124     -13.19880371       2.08626238
P       13.39381065     -10.67262719       2.08626268
In      15.78109418      -9.83635952       2.08626239
P       15.58048159      -7.29057625       2.08626232
In      19.37231338      -9.80368379       0.00000022
P       19.15523453      -7.23750085       0.00000002
In      14.36084662      -6.42234297      -0.00000000
P       14.18327866      -3.86140129       0.00000010
In      17.93040829      -6.39512049       2.08626233
P       17.48923964      -3.86140790       2.08626247
96
Lattice="14.45404925834546 20.441112492360922 0.0 14.45404925834546 -20.441112492360922 0.0 -2.220446049250313e-16 0.0 4.1725246150929305" Properties=species:S:1:pos:R:3 core_positions="_JSON [[7.227024629172732, 0.0, 2.0862623075464652], [21.68107388751819, 0.0, 2.0862623075464652]]" burgers_vectors="_JSON [[-0.9834734833333334, -0.9834734833333334, 1.9669469666666668], [0.9834734833333334, 0.9834734833333334, -1.9669469666666668]]" dislocation_types="_JSON [\"1/6<112> 90 degree partial\", \"1/6<112> 90 degree partial\"]" dislocation_classes="_JSON [\"<class 'matscipy.dislocation.DiamondGlide90degreePartial'>\", \"<class 'matscipy.dislocation.DiamondGlide90degreePartial'>\"]" energy=-329.29813499155273 pbc="T T T"
In       9.32433857      -3.26501446       0.00000008
P        8.68081822      -0.76874284       0.00000017
In       5.87762278      -3.07087915       2.08626215
P        5.98258510      -0.57694243       2.08626187
In       9.60706510       0.19552260       2.08626246
P        9.02158963       2.77763510       2.08626269
In      13.27100463       0.36737161       0.00000012
P       12.58993534       2.89268758       0.00000034
In       7.76464054       3.61544128       0.00000039
P        7.47273870       6.19891127      -0.00000011
In      11.35310977       3.82048356       2.08626265
P       11.06933112       6.35692496       2.08626228
In       9.81593501       7.16984482      -0.00000004
P        9.64770049       9.75988904       0.00000024
In       6.28519002       7.14849131       2.08626217
P       20.57503553     -10.69905437       2.08626252
In       8.46762217      10.68742033       2.08626256
P       22.69135999      -7.15492372       2.08626230
In      11.99541853      10.69379322       0.00000032
P       11.77981281      13.28699249      -0.00000006
In      21.46901442      -6.21080999      -0.00000003
P       21.25457002      -3.58327653       0.00000001
In      10.58761153      14.25851336       2.08626223
P       24.95761929      -3.60500827       2.08626227
In      16.46077344      -2.78546866       0.00000012
P       15.74158044      -0.29332231      -0.00000007
In      12.87620988      -3.15415663       2.08626244
P       12.19273294      -0.61366996       2.08626244
In      16.76182601       0.68102970       2.08626220
P       16.13953353       3.11989169       2.08626277
In      20.20478523       0.56973854      -0.00000000
P       19.56040449       3.05156614       0.00000037
In      14.89646370       3.90469825       0.00000051
P       14.65505882       6.42356681      -0.00000005
In      18.45217706       4.02356607       2.08626271
P       18.25123055       6.53846861       2.08626226
In      17.00782984       7.31487006      -0.00000008
P       16.75936083       9.83124866       0.00000029
In      13.43304222       7.25656451       2.08626223
P       13.19783457       9.81374190       2.08626262
In      15.55858448      10.70188085       2.08626261
P       15.38531813      13.25194245       2.08626211
In      19.15338763      10.63323585       0.00000057
P       18.99833450      13.15510978       0.00000001
In      14.17566970      14.13389293      -0.00000023
P       14.12281492      16.69713308      -0.00000004
In      17.79391898      14.06235910       2.08626235
P        3.38602691      -3.83464406       2.08626233
In      23.72542286      -2.85474881      -0.00000004
P       24.04881347      -0.28381054      -0.00000005
In      19.86607930      -2.95132739       2.08626233
P       19.11276084      -0.41110195       2.08626234
In      23.71254584       1.04610552       2.08626227
P       23.09046709       3.41006984       2.08626257
In      26.49295336       0.55532440      -0.00000007
P       12.15466247     -17.38059967      -0.00000023
In      21.84035875       4.09301630       0.00000031
P       21.85123680       6.58638358       0.00000029
In      25.55161253       4.02329828       2.08626201
P       11.14161581     -13.90731448       2.08626158
In       9.85866407     -13.19861585      -0.00000082
P        9.70814996     -10.69053616      -0.00000105
In      20.62858986       7.37516968       2.08626265
P       20.44675499       9.87373710       2.08626276
In       8.46069075      -9.90773394       2.08626116
P        8.27860546      -7.40244780       2.08626116
In      12.13761974      -9.88699053       0.00000036
P       11.98042898      -7.37706456       0.00000040
In       6.99821649      -6.61286865      -0.00000125
P        6.94053524      -4.07911615      -0.00000023
In      10.70476741      -6.61129474       2.08626272
P       10.55286334      -4.08608074       2.08626240
In      16.58629728      17.43936893       0.00000003
P        2.38045100      -0.43011059      -0.00000014
In      12.96652142      17.62487174       2.08626227
P       27.64330440      -0.28933465       2.08626224
In       1.17973980       0.45701845       2.08626218
P       15.86145119     -17.43105255       2.08626217
In       4.89343924       0.29772700      -0.00000040
P        5.22342132       2.87204026      -0.00000017
In      14.60966248     -16.61100114      -0.00000012
P       14.72871905     -14.07509852       0.00000001
In       3.93953177       3.74106586       2.08626209
P       18.34673483     -14.14145944       2.08626216
In      17.14444007     -13.28253605      -0.00000016
P       16.99535972     -10.71579233       0.00000010
In      13.56730087     -13.18547878       2.08626238
P       13.39659371     -10.66276122       2.08626263
In      15.78717854      -9.83886626       2.08626240
P       15.56637067      -7.30157691       2.08626232
In      19.37114367      -9.81956516       0.00000023
P       19.15216751      -7.25558041       0.00000002
In      14.34418575      -6.43852479       0.00000000
P       14.14315201      -3.88428978       0.00000012
In      17.92359591      -6.42065550       2.08626233
P       17.53003840      -3.87929809       2.08626243
96