96
Lattice="14.277753590966245 20.19179388762436 0.0 14.277753590966245 -20.19179388762436 0.0 0.0 0.0 4.121632923437913" Properties=species:S:1:pos:R:3:x_err:R:1:y_err:R:1:z_err:R:1:total_err:R:1:energies:R:1:forces:R:3 energy=-343.1408076392779 free_energy=-343.1408076392779 stress="0.04025197852509738 -0.004744073073388683 0.009093556248828079 -0.004744073073388683 0.030710869472091885 0.0012938354094315801 0.009093556248828079 0.0012938354094315801 0.03755911281222076" pbc="T T T"
P        9.43299179      -0.53836683       4.19938709      -0.11199443      -0.02039052       0.18031677       0.21324320     -13.67205235      -1.29232856       0.13166909      -0.16477972
P        5.93291132      -0.41314514       2.05945318       0.00694209       0.00002431       0.00558484       0.00890975     -14.51716925       1.83933557      -0.01563552      -0.38617981
P        8.40717061       2.88652568       2.08752081       0.03882584      -0.04111427      -0.01983337       0.05992656     -14.40513647      -1.21168030      -1.39628322      -0.35171901
P       11.97654624       3.07035558       0.07765573       0.05040662       0.01828110      -0.06290842       0.08265891      -9.20258274      -0.05192979      -0.21917932       0.13007458
P        7.15590484       6.26581384       0.00415167       0.01450156      -0.02443368      -0.01135600       0.03059834      -9.07874439      -0.13824970      -1.87720603      -0.55454496
P       10.69324207       6.32719846       2.06067211       0.00711751      -0.00982692      -0.03740562       0.03932439      -6.48804916      -0.01458863       0.06168095      -0.01921485
P        9.51539617       9.69010613       0.02312441      -0.00330864      -0.00138151      -0.00164109       0.00394320      -6.64785555      -0.02662737       0.06318870       0.00597215
P       20.23647769     -10.55506395       2.08180597       0.00189743      -0.01139586       0.01505682       0.01897824      -6.89957622      -0.01038161       0.04003478       0.02110978
P       22.59178732      -7.13959254       2.08728965      -0.01683212       0.00853614       0.02879783       0.03443111      -5.93250659      -0.00580079       0.01946558      -0.00103161
P       11.89264287      13.03975333       0.02473407      -0.01227065      -0.00332654       0.00514402       0.01371480      -5.97167796       0.00368487       0.02474047       0.00694500
P       21.43132321      -3.77475433       4.15184659      -0.01996905       0.01863797       0.04969743       0.05670953      -5.70824495      -0.01770535       0.00627037       0.01045751
P       24.99768711      -3.78554279       2.08794035      -0.01298334       0.00074617       0.01536733       0.02013154      -5.82325410      -0.03909488       0.00681009       0.01976816
P       16.63759968      -0.44967099       4.15571419      -0.08807731      -0.00302685       0.14895190       0.17307063      -6.31156003      -0.03982111      -0.00936664       0.00438133
P       13.58165951      -0.76627416      -0.07146822      -0.00916184      -0.05475005      -0.20136770       0.20887906      -8.21619115       0.09665270      -0.04995898      -0.04307749
P       15.43936803       2.76963764       2.11295874       0.03768808      -0.02770477      -0.08355280       0.09575498      -6.05207277      -0.03619706       0.01076806       0.02625747
P       19.00269531       2.96408192       0.03854985       0.03483548       0.01606003      -0.08669592       0.09480305      -8.69433244      -0.02195503       0.00247671       0.01093263
P       14.27138408       6.32579700       0.00553655       0.01393340      -0.00194545      -0.04897384       0.05095451      -5.53800453      -0.04504552      -0.01661390       0.03219443
P       17.81520059       6.30353138       2.08862210       0.01209252       0.00180693      -0.04508841       0.04671679      -5.55242072       0.00934156       0.00858402      -0.00959109
P       16.65569543       9.68240488       0.02601802      -0.00209794      -0.00134055      -0.01675303       0.01693702      -6.05122300       0.02684038       0.00918761       0.00490326
P       13.08765003       9.66575323       2.08208945      -0.00241593      -0.00898077      -0.01653922       0.01897464      -5.52160465       0.01972747       0.06042079       0.00148432
P       15.46183279      13.04499772       2.08598620      -0.01395556      -0.00300609       0.00130665       0.01433533      -6.96227465       0.00798928       0.02542635       0.00002106
P       19.02966873      13.03979890       0.02529879      -0.01808831      -0.00268273       0.00858217       0.02019994      -5.87294409      -0.04331862      -0.01450359      -0.04834966
P       14.28478269      16.41118940       0.02395209      -0.01407459       0.00000823       0.00968049       0.01708233      -8.55346114       0.03356864       0.00822103      -0.01566319
P        3.58209457      -3.78179391       2.08113593      -0.01812587      -0.00109721       0.01479542       0.02342340      -9.43460473      -0.03108337       0.15140412      -0.04403517
P       23.79129755      -0.41538683       4.15414658      -0.01148803       0.00340021      -0.01365065       0.01816250      -5.52126540       0.01934446       0.03195660       0.02790206
P       20.19616604      -0.42189252       2.10659249      -0.07546461       0.03683251       0.19537112       0.21265328      -8.69476592      -0.00159261       0.00567572       0.00215647
P       22.59072924       2.94701416       2.09107062       0.02134901       0.01453677      -0.04254731       0.04977320      -6.89701245       0.01654100      -0.00671912       0.02595814
P       26.17527241       2.95686212       0.02387488       0.01691926       0.00682927      -0.01359245       0.02275203      -7.14456600       0.26274157      -0.00617974       0.01850565
P       21.39847671       6.31710754       0.02593721       0.01440853       0.01741919      -0.02291001       0.03218544      -4.25549221       0.00750437      -0.00081645       0.00933537
P       10.69411739     -13.87199003       2.08452036       0.01285461       0.00917786      -0.00520580       0.01663052      -4.22450211       0.04029280      -0.02867747       0.02197079
P        9.50576690     -10.50311527       4.14635075      -0.00016325       0.00748900       0.00779866       0.01081346      -6.91374802      -0.03444332       0.01802138      -0.01726709
P       20.22622252       9.67541980       2.08645869      -0.00091674       0.00537703      -0.00519441       0.00753225      -5.03622666      -0.00067136      -0.03924510      -0.00069439
P        8.32497740      -7.12000943       2.08708585      -0.01677560       0.00239721       0.02307721       0.02863084      -9.01787192      -0.03511979       0.26792245      -0.11983861
P       11.86976501      -7.12547619       4.15751589      -0.02123985       0.00773522       0.05072953       0.05553782      -6.23420824      -0.01385737       0.07512798      -0.03021038
P        7.12442133      -3.78665114       4.12573020      -0.03523386      -0.01254229       0.02591199       0.04549907     -11.61907870       0.17128188       1.66357902       0.75912936
P       10.86608208      -3.70275419       2.11084705      -0.01137008       0.01341698       0.08955517       0.09126567     -10.41747688      -0.98984798       0.30579172       0.17846183
P        2.36869167      -0.42064670       0.02163686      -0.00017088       0.00177789       0.00501914       0.00532746     -10.66988977      -0.08199443       0.06722077       0.00589413
P       27.35853158      -0.41129105       2.08550315      -0.00712116       0.00308091       0.00688050       0.01037035      -7.60056582       0.03840367      -0.02805070       0.06695905
P       15.48656620     -17.23863923       2.07959808       0.01994616       0.00154232      -0.00404908       0.02041134      -8.18950887       2.21213948      -1.32799135       0.57092457
P        4.79680445       2.94089556       0.00257806       0.02688039      -0.00706074      -0.00720950       0.02871213     -13.47116070       0.19564520       0.63306353      -0.08298799
P       14.26701796     -13.87649545       4.14208034       0.01078523       0.00321502       0.00443184       0.01209540      -5.02893298       0.07381794      -0.04596731       0.00257390
P       17.84426523     -13.88485817       2.07441933       0.01074477      -0.00345783       0.00363625       0.01185871      -7.48602846       0.11267473       0.02724024      -0.01033641
P       16.65403925     -10.51736518       4.14812343       0.00046814       0.00249208       0.02469438       0.02482422      -5.95615919       0.02401526      -0.00155213       0.01126257
P       13.08159374     -10.49976690       2.08771598       0.00068425       0.00779380       0.02286734       0.02416871      -4.74885941       0.06183659      -0.00721830       0.06294651
P       15.46022778      -7.12368011       2.10300907      -0.01608112       0.01103475       0.05682190       0.06007576      -4.52815741       0.02083585      -0.01298375      -0.00273848
P       19.03523803      -7.18304537       4.14936855      -0.01340704      -0.00097485       0.04594600       0.04787206      -5.58160469      -0.00943942       0.00372601      -0.00012420
P       14.29447861      -3.75778820       4.15475992      -0.03646720       0.00949344       0.09365660       0.10095317      -6.09312207      -0.09189172       0.02095227       0.05071643
P       17.87276758      -3.81050178       2.07552571      -0.02717592       0.00450984       0.07970535       0.08433156      -5.98831086      -0.00956313       0.00470178       0.00174568
In       9.52450907      -3.04061669       4.17451688      -0.03747956      -0.01606290       0.09266686       0.10124169       2.48218416      -0.20452803       0.29399239       0.20140868
In       5.95576930      -2.92645014       2.06331898      -0.01992413       0.00554016       0.02145665       0.02980020       3.67460914       0.02766338      -0.01291862      -0.12207868
In       8.32612981       0.37466399       2.14554408       0.05104549      -0.05494290      -0.05375060       0.09226858      11.39159833       0.08515206       0.54257514      -0.08381915
In      11.52124733       0.69072310      -0.38231436       0.02734065       0.03173363      -0.24021507       0.24383973      -1.25555211       0.00374243      -0.04797698      -0.02072741
In       7.20145768       3.73526066       0.01552972       0.04308497      -0.03300190      -0.01940214       0.05763578       8.75401632       0.03572455       0.08581648      -0.24584700
In      10.74574094       3.80832443       2.14534529       0.02812897      -0.01581227      -0.05650017       0.06506563       3.18114700      -0.72239083      -0.04482398       0.21346033
In       9.51115102       7.16640729      -0.00043076       0.00730967      -0.00719212      -0.03312938       0.03468016      -1.12361026      -0.03978461       0.07347461      -0.01525620
In       5.96178403       7.10744539       2.06767510       0.01685927      -0.01800106      -0.00802100       0.02593472      -1.20907687      -0.06341675      -0.03905779      -0.05566400
In       8.32235670      10.52839914       2.08412131      -0.00345888       0.00206294       0.00184287       0.00442897      -0.67883780       0.01773261       0.03116271       0.02425067
In      11.90108515      10.51374195       0.02177511      -0.00229428      -0.00664581      -0.01389692       0.01557418      -1.78378399      -0.01534003       0.01731691      -0.00864051
In      21.39925093      -6.29817504       4.14938674      -0.01863768       0.01018375       0.03292777       0.03918303      -0.51651306      -0.01084594       0.00589120      -0.00131538
In      10.69994995      13.88056021       2.08590402      -0.01191773      -0.00265258       0.00722995       0.01418945      -0.96555222      -0.00681594       0.00948448       0.00295621
In      16.66285903      -2.95250546       4.13135089      -0.04264061      -0.00272420       0.08455349       0.09473613      -1.25753255      -0.04659534      -0.03177531       0.00643263
In      13.20404738      -2.66705261       2.08066664      -0.02569208       0.04954973       0.09537959       0.11051030       0.74111626       0.00889909       0.05855506       0.03791614
In      15.24896877       0.21974034       2.08133365       0.06735753      -0.03914846      -0.17692538       0.19331898      -0.16496942      -0.02435840      -0.00471562       0.00646476
In      19.03364216       0.44207586       0.04720592       0.10269247       0.01091643      -0.19597196       0.22151732       2.30752089      -0.00472773       0.00781030       0.00325172
In      14.36742311       3.81391009       0.05509914       0.04810280      -0.00153027      -0.08009724       0.09344405      -2.37406460      -0.04098226      -0.01040216       0.03415588
In      17.78721391       3.78124125       2.10173328       0.02423468       0.00326604      -0.08462371       0.08808609      -0.01534495      -0.02058757       0.00319566       0.00684321
In      16.64695973       7.16685939       0.02618617       0.00946103       0.00076679      -0.04313211       0.04416422      -1.17841153      -0.02077077       0.00748205      -0.01583906
In      13.07124576       7.14204576       2.06471358       0.00458939      -0.01190172      -0.04601797       0.04775319      -1.38611046       0.05218705       0.05514748       0.04899098
In      15.46304291      10.52134262       2.08634603      -0.00498972      -0.00348386      -0.01528963       0.01645623      -1.05965624       0.03807557       0.02130976       0.00412226
In      19.03745334      10.51630442       0.02541168      -0.00438286       0.00084674      -0.00496307       0.00667522      -1.98634743       0.03160509       0.03467660       0.00084067
In      14.27092675      13.88706278       0.02509556      -0.01225506      -0.00098575       0.00233764       0.01251490       0.39892381       0.01681388       0.02073420       0.00088458
In      17.84150483      13.88542374       2.08560713      -0.01506459       0.00078642       0.00837249       0.01725279       0.56835258       0.01122239       0.05075471      -0.04808535
In      23.81326244      -2.94209386       4.14888906      -0.01026705      -0.00039963       0.01696027       0.01982985      -1.15648765      -0.01829447       0.02212465       0.01665758
In      20.23981993      -2.94699135       2.09179381      -0.02925373       0.00136746       0.05079193       0.05862995      -0.95233454      -0.01097523       0.01469232       0.00908445
In      22.58462538       0.41935078       2.09425821       0.01107350       0.01847900      -0.02596536       0.03373864      -0.10551352      -0.02155267       0.02370355      -0.01354780
In      26.16847518       0.43220016       4.14698527      -0.00324263       0.00767216       0.00735352       0.01111085       0.43947514       0.01571948       0.05819526       0.10522667
In      21.39640868       3.79290346       0.03083018       0.02889960       0.02447386      -0.04664648       0.06008370      -2.07513437       0.00305806      -0.01440907       0.01258341
In      24.97575448       3.79361945       2.08537200       0.02320211       0.01169287      -0.01609375       0.03056256      -2.81812594       0.12660064      -0.08520407       0.01172161
In       9.50073696     -13.02893544       4.14571452       0.01468475       0.01139138      -0.00567659       0.01943268      -3.11630735       0.02322403      -0.03992886       0.01984069
In      20.20245986       7.14577245       2.08667096       0.00870908       0.00868611      -0.02317807       0.02623966      -1.88785856       0.02125544       0.00136193       0.00834613
In       8.32584990      -9.65152571       2.08553831      -0.00122732       0.00558803       0.00785346       0.00971644      -1.45870621      -0.04451720       0.04045340      -0.02965074
In      11.88454438      -9.65779463       4.14933808      -0.00153717       0.00773951       0.02426540       0.02551612      -1.16587215      -0.02704831       0.05052757      -0.02229112
In       7.12132148      -6.30671836       4.14637141      -0.02083966      -0.00474284       0.02207722       0.03072766       0.54820101      -0.08493900      -0.32317831      -0.11187723
In      10.69394765      -6.25313920       2.09927816      -0.02193069       0.01161797       0.05302002       0.05854106       0.50894758      -0.07249062       0.07134415      -0.01383633
In       2.38939166      -2.94467335       4.14252727      -0.01246618       0.00232261       0.01371658       0.01868006       3.08889066       0.00949110       0.06053275      -0.02567304
In      13.09645068      17.25534403       2.08506784      -0.01032827       0.00192352       0.01001667       0.01451575       0.04335655      -0.02595833      -0.04728324      -0.01096499
In       1.18238115       0.42770629       2.08262084       0.00081626       0.00043736       0.00452818       0.00462190       2.11377942      -0.26097184       0.00855089      -0.06255306
In       4.74701602       0.42058286      -0.00175342       0.01155696      -0.00955095       0.00376553       0.01545843      14.05170331      -0.17438134       0.25965052      -0.12119457
In      14.28486613     -16.40122961       4.14116039       0.02213838       0.00248805      -0.00427747       0.02268468      -1.00763998       0.11959175       0.04878942       0.15784775
In       3.60048009       3.78246030       2.06608665       0.02833195      -0.00653801      -0.00610812       0.02971118       3.39347177       0.09556021       0.11580376      -0.04236876
In      16.64949661     -13.04136966       4.13684568       0.01276655      -0.00016526       0.00552624       0.01391228      -1.27777741       0.09220973      -0.08699685      -0.09851826
In      13.07598878     -13.02914374       2.08227385       0.01367247       0.00716757       0.00524589       0.01630429      -1.65314255       0.10316594      -0.01117754       0.02660090
In      15.46443399      -9.65630644       2.08884813       0.00055909       0.00735519       0.02718821       0.02817109      -1.83005898       0.00445181       0.01696260       0.00955195
In      19.04733978      -9.70929392       4.14306408       0.00326620      -0.00672420       0.01818338       0.01966006      -0.65987604       0.00161880      -0.00284532       0.02388675
In      14.25822070      -6.31466058       4.16546301      -0.02277273       0.00303506       0.06005291       0.06429744      -2.54339393       0.02052319       0.02920475      -0.01235514
In      17.85817029      -6.33148226       2.08956616      -0.01413115      -0.00009637       0.04965950       0.05163104      -1.73845053      -0.00300154       0.01023690       0.00021706
96
Lattice="14.277753590966245 20.19179388762436 0.0 14.277753590966245 -20.19179388762436 0.0 0.0 0.0 4.121632923437913" Properties=species:S:1:pos:R:3:x_err:R:1:y_err:R:1:z_err:R:1:total_err:R:1:energies:R:1:forces:R:3 energy=-343.1408076392779 free_energy=-343.1408076392779 stress="0.04025197852509738 -0.004744073073388683 0.009093556248828079 -0.004744073073388683 0.030710869472091885 0.0012938354094315801 0.009093556248828079 0.0012938354094315801 0.03755911281222076" pbc="T T T"
P        7.92277382      -0.56270748      -0.91953278      -0.11199443      -0.02039052       0.18031677       0.21324320     -13.67205235      -1.29232856       0.13166909      -0.16477972
P        6.36892957      -0.78679102       2.91361657       0.00694209       0.00002431       0.00558484       0.00890975     -14.51716925       1.83933557      -0.01563552      -0.38617981
P        7.00701052       1.77574698       3.09046643       0.03882584      -0.04111427      -0.01983337       0.05992656     -14.40513647      -1.21168030      -1.39628322      -0.35171901
P       10.69381304       2.35196852       0.84629099       0.05040662       0.01828110      -0.06290842       0.08265891      -9.20258274      -0.05192979      -0.21917932       0.13007458
P        7.41794241       3.65642277      -0.70361587       0.01450156      -0.02443368      -0.01135600       0.03059834      -9.07874439      -0.13824970      -1.87720603      -0.55454496
P       10.32152421       6.07380130       2.02027336       0.00711751      -0.00982692      -0.03740562       0.03932439      -6.48804916      -0.01458863       0.06168095      -0.01921485
P        8.73618245       9.35570112      -0.33198279      -0.00330864      -0.00138151      -0.00164109       0.00394320      -6.64785555      -0.02662737       0.06318870       0.00597215
P       19.51876302     -10.25629716       1.58184783       0.00189743      -0.01139586       0.01505682       0.01897824      -6.89957622      -0.01038161       0.04003478       0.02110978
P       22.11544331      -7.04190218       2.02979912      -0.01683212       0.00853614       0.02879783       0.03443111      -5.93250659      -0.00580079       0.01946558      -0.00103161
P       11.53110494      12.79496745       0.05298343      -0.01227065      -0.00332654       0.00514402       0.01371480      -5.97167796       0.00368487       0.02474047       0.00694500
P       21.48465413      -3.48188743       0.30594247      -0.01996905       0.01863797       0.04969743       0.05670953      -5.70824495      -0.01770535       0.00627037       0.01045751
P       25.09798696      -3.91633203       1.98570921      -0.01298334       0.00074617       0.01536733       0.02013154      -5.82325410      -0.03909488       0.00681009       0.01976816
P       16.01681993       0.72009368      -1.23950736      -0.08807731      -0.00302685       0.14895190       0.17307063      -6.31156003      -0.03982111      -0.00936664       0.00438133
P       11.67797040       0.37498433       0.91804657      -0.00916184      -0.05475005      -0.20136770       0.20887906      -8.21619115       0.09665270      -0.04995898      -0.04307749
P       15.61539111       2.96363635       2.69789190       0.03768808      -0.02770477      -0.08355280       0.09575498      -6.05207277      -0.03619706       0.01076806       0.02625747
P       19.07755050       2.74798682       0.65537679       0.03483548       0.01606003      -0.08669592       0.09480305      -8.69433244      -0.02195503       0.00247671       0.01093263
P       14.06996192       6.03541669       0.26384433       0.01393340      -0.00194545      -0.04897384       0.05095451      -5.53800453      -0.04504552      -0.01661390       0.03219443
P       17.91950202       6.38483074       2.60082554       0.01209252       0.00180693      -0.04508841       0.04671679      -5.55242072       0.00934156       0.00858402      -0.00959109
P       16.51505174       9.58573358       0.53155299      -0.00209794      -0.00134055      -0.01675303       0.01693702      -6.05122300       0.02684038       0.00918761       0.00490326
P       12.76536214       9.48998755       2.07747138      -0.00241593      -0.00898077      -0.01653922       0.01897464      -5.52160465       0.01972747       0.06042079       0.00148432
P       15.20906720      12.93261505       2.39189812      -0.01395556      -0.00300609       0.00130665       0.01433533      -6.96227465       0.00798928       0.02542635       0.00002106
P       18.08632142      13.51986745       0.69304826      -0.01808831      -0.00268273       0.00858217       0.02019994      -5.87294409      -0.04331862      -0.01450359      -0.04834966
P       14.65127621      15.96403957       0.45355137      -0.01407459       0.00000823       0.00968049       0.01708233      -8.55346114       0.03356864       0.00822103      -0.01566319
P        3.67185912      -2.79837290       2.71184369      -0.01812587      -0.00109721       0.01479542       0.02342340      -9.43460473      -0.03108337       0.15140412      -0.04403517
P       24.46850273      -0.32204451      -0.40254727      -0.01148803       0.00340021      -0.01365065       0.01816250      -5.52126540       0.01934446       0.03195660       0.02790206
P       20.39944700      -0.34243737       0.96900301      -0.07546461       0.03683251       0.19537112       0.21265328      -8.69476592      -0.00159261       0.00567572       0.00215647
P       22.32008944       2.33106123       2.83648208       0.02134901       0.01453677      -0.04254731       0.04977320      -6.89701245       0.01654100      -0.00671912       0.02595814
P       13.65942689     -17.82681619       0.60849935       0.01691926       0.00682927      -0.01359245       0.02275203      -7.14456600       0.26274157      -0.00617974       0.01850565
P       21.87338981       6.48632460       0.64422840       0.01440853       0.01741919      -0.02291001       0.03218544      -4.25549221       0.00750437      -0.00081645       0.00933537
P       11.30660019     -14.70477856       2.73341961       0.01285461       0.00917786      -0.00520580       0.01663052      -4.22450211       0.04029280      -0.02867747       0.02197079
P        9.64286721      -9.55192892       0.80270058      -0.00016325       0.00748900       0.00779866       0.01081346      -6.91374802      -0.03444332       0.01802138      -0.01726709
P       20.07416060       9.75453165       2.77113486      -0.00091674       0.00537703      -0.00519441       0.00753225      -5.03622666      -0.00067136      -0.03924510      -0.00069439
P        7.91616854      -6.44527173       2.89799559      -0.01677560       0.00239721       0.02307721       0.02863084      -9.01787192      -0.03511979       0.26792245      -0.11983861
P       11.56238493      -6.91803303      -1.21837294      -0.02123985       0.00773522       0.05072953       0.05553782      -6.23420824      -0.01385737       0.07512798      -0.03021038
P        7.56225063      -2.51017461       1.39901459      -0.03523386      -0.01254229       0.02591199       0.04549907     -11.61907870       0.17128188       1.66357902       0.75912936
P        8.70651356      -2.17034736       0.03776326      -0.01137008       0.01341698       0.08955517       0.09126567     -10.41747688      -0.98984798       0.30579172       0.17846183
P        2.46912983      -0.19213487       0.94002607      -0.00017088       0.00177789       0.00501914       0.00532746     -10.66988977      -0.08199443       0.06722077       0.00589413
P       27.98751877      -0.94114888       2.27357077      -0.00712116       0.00308091       0.00688050       0.01037035      -7.60056582       0.03840367      -0.02805070       0.06695905
P       17.70254353     -17.57987490       2.48784352       0.01994616       0.00154232      -0.00404908       0.02041134      -8.18950887       2.21213948      -1.32799135       0.57092457
P        5.33546088       1.60155894      -1.08075638       0.02688039      -0.00706074      -0.00720950       0.02871213     -13.47116070       0.19564520       0.63306353      -0.08298799
P       15.20495885     -13.76804427       0.31888656       0.01078523       0.00321502       0.00443184       0.01209540      -5.02893298       0.07381794      -0.04596731       0.00257390
P       18.74042719     -14.10576808       1.28400518       0.01074477      -0.00345783       0.00363625       0.01185871      -7.48602846       0.11267473       0.02724024      -0.01033641
P       16.52423526     -10.24034030      -0.67477301       0.00046814       0.00249208       0.02469438       0.02482422      -5.95615919       0.02401526      -0.00155213       0.01126257
P       12.77204006     -11.06178950       1.30396452       0.00068425       0.00779380       0.02286734       0.02416871      -4.74885941       0.06183659      -0.00721830       0.06294651
P       15.18948722      -6.89629537       1.00862133      -0.01608112       0.01103475       0.05682190       0.06007576      -4.52815741       0.02083585      -0.01298375      -0.00273848
P       18.68327455      -6.41964496      -0.79305458      -0.01340704      -0.00097485       0.04594600       0.04787206      -5.58160469      -0.00943942       0.00372601      -0.00012420
P       13.30207571      -3.12085120      -1.29930519      -0.03646720       0.00949344       0.09365660       0.10095317      -6.09312207      -0.09189172       0.02095227       0.05071643
P       17.35314340      -2.76152456       0.98633697      -0.02717592       0.00450984       0.07970535       0.08433156      -5.98831086      -0.00956313       0.00470178       0.00174568
In       9.16293198      -4.28028857      -1.32049770      -0.03747956      -0.01606290       0.09266686       0.10124169       2.48218416      -0.20452803       0.29399239       0.20140868
In       5.78041661      -3.95778698       2.88155300      -0.01992413       0.00554016       0.02145665       0.02980020       3.67460914       0.02766338      -0.01291862      -0.12207868
In       9.62812681      -0.27511041       1.36215655       0.05104549      -0.05494290      -0.05375060       0.09226858      11.39159833       0.08515206       0.54257514      -0.08381915
In      13.26701963      -0.32977845      -1.16995216       0.02734065       0.03173363      -0.24021507       0.24383973      -1.25555211       0.00374243      -0.04797698      -0.02072741
In       8.49078782       2.98295657       1.35138074       0.04308497      -0.03300190      -0.01940214       0.05763578       8.75401632       0.03572455       0.08581648      -0.24584700
In      10.50390636       3.73972102       2.85708463       0.02812897      -0.01581227      -0.05650017       0.06506563       3.18114700      -0.72239083      -0.04482398       0.21346033
In       8.99028766       6.80866221      -0.11602792       0.00730967      -0.00719212      -0.03312938       0.03468016      -1.12361026      -0.03978461       0.07347461      -0.01525620
In       6.68584146       7.73420061       1.40476340       0.01685927      -0.01800106      -0.00802100       0.02593472      -1.20907687      -0.06341675      -0.03905779      -0.05566400