24
Lattice="5.8292796622928345 0.0 0.0 0.0 5.8292796622928345 0.0 0.0 0.0 17.487838986878504" Properties=species:S:1:pos:R:3 energy=-83.53392680904787 pbc="T T T"
P        4.37195975       1.45731992       1.45731992
In       2.91463983       0.00000000       2.91463983
P        1.45731992       1.45731992       4.37195975
P        4.37195975       4.37195975       4.37195975
In       2.91463983       2.91463983       0.00000000
P        1.45731992       4.37195975       1.45731992
In       0.00000000       0.00000000       0.00000000
In       0.00000000       2.91463983       2.91463983
P        4.37195975       1.45731992       7.28659958
In       2.91463983       0.00000000       8.74391949
P        1.45731992       1.45731992      10.20123941
P        4.37195975       4.37195975      10.20123941
In       2.91463983       2.91463983       5.82927966
P        1.45731992       4.37195975       7.28659958
In       0.00000000       0.00000000       5.82927966
In       0.00000000       2.91463983       8.74391949
P        4.37195975       1.45731992      13.11587924
In       2.91463983       0.00000000      14.57319916
P        1.45731992       1.45731992      16.03051907
P        4.37195975       4.37195975      16.03051907
In       2.91463983       2.91463983      11.65855932
P        1.45731992       4.37195975      13.11587924
In       0.00000000       0.00000000      11.65855932
In       0.00000000       2.91463983      14.57319916
24
Lattice="5.8292796622928345 0.0 0.0 0.0 5.8292796622928345 0.0 0.0 0.07286599577866043 17.487838986878504" Properties=species:S:1:pos:R:3 energy=-83.51108001477112 pbc="T T T"
P        4.37195975       1.45731992       1.45949951
In       2.91463983       0.00000000       2.91653513
P        1.45731992       1.45731992       4.37321195
P        4.37195975       4.37195975       4.37321195
In       2.91463983       2.91463983       0.00293482
P        1.45731992       4.37195975       1.45949951
In       0.00000000       0.00000000       0.00293482
In       0.00000000       2.91463983       2.91653513
P        4.37195975       1.45731992       7.28664214
In       2.91463983       0.00000000       8.74329904
P        1.45731992       1.45731992      10.20023734
P        4.37195975       4.37195975      10.20023734
In       2.91463983       2.91463983       5.83010229
P        1.45731992       4.37195975       7.28664214
In       0.00000000       0.00000000       5.83010229
In       0.00000000       2.91463983       8.74329904
P        4.37195975       1.45731992      13.11412561
In       2.91463983       0.00000000      14.57105267
P        1.45731992       1.45731992      16.02827090
P        4.37195975       4.37195975      16.02827090
In       2.91463983       2.91463983      11.65720303
P        1.45731992       4.37195975      13.11412561
In       0.00000000       0.00000000      11.65720303
In       0.00000000       2.91463983      14.57105267
24
Lattice="5.8292796622928345 0.0 0.0 0.0 5.8292796622928345 0.0 0.0 0.14573199155732086 17.487838986878504" Properties=species:S:1:pos:R:3 energy=-83.44762011090842 pbc="T T T"
P        4.37195975       1.45731992       1.46596722
In       2.91463983       0.00000000       2.92228235
P        1.45731992       1.45731992       4.37696600
P        4.37195975       4.37195975       4.37696600
In       2.91463983       2.91463983       0.01172586
P        1.45731992       4.37195975       1.46596722
In       0.00000000       0.00000000       0.01172586
In       0.00000000       2.91463983       2.92228235
P        4.37195975       1.45731992       7.28681091
In       2.91463983       0.00000000       8.74134256
P        1.45731992       1.45731992      10.19720728
P        4.37195975       4.37195975      10.19720728
In       2.91463983       2.91463983       5.83254269
P        1.45731992       4.37195975       7.28681091
In       0.00000000       0.00000000       5.83254269
In       0.00000000       2.91463983       8.74134256
P        4.37195975       1.45731992      13.10880749
In       2.91463983       0.00000000      14.56462516
P        1.45731992       1.45731992      16.02176159
P        4.37195975       4.37195975      16.02176159
In       2.91463983       2.91463983      11.65307530
P        1.45731992       4.37195975      13.10880749
In       0.00000000       0.00000000      11.65307530
In       0.00000000       2.91463983      14.56462516
24
Lattice="5.8292796622928345 0.0 0.0 0.0 5.8292796622928345 0.0 0.0 0.21859798733598132 17.487838986878504" Properties=species:S:1:pos:R:3 energy=-83.35148992632895 pbc="T T T"
P        4.37195975       1.45731992       1.47265924
In       2.91463983       0.00000000       2.92825169
P        1.45731992       1.45731992       4.38070926
P        4.37195975       4.37195975       4.38070926
In       2.91463983       2.91463983       0.02303385
P        1.45731992       4.37195975       1.47265924
In       0.00000000       0.00000000       0.02303385
In       0.00000000       2.91463983       2.92825169
P        4.37195975       1.45731992       7.28666472
In       2.91463983       0.00000000       8.73895041
P        1.45731992       1.45731992      10.19378646
P        4.37195975       4.37195975      10.19378646
In       2.91463983       2.91463983       5.83507039
P        1.45731992       4.37195975       7.28666472
In       0.00000000       0.00000000       5.83507039
In       0.00000000       2.91463983       8.73895041
P        4.37195975       1.45731992      13.10353708
In       2.91463983       0.00000000      14.55820179
P        1.45731992       1.45731992      16.01325672
P        4.37195975       4.37195975      16.01325672
In       2.91463983       2.91463983      11.64899282
P        1.45731992       4.37195975      13.10353708
In       0.00000000       0.00000000      11.64899282
In       0.00000000       2.91463983      14.55820179
24
Lattice="5.8292796622928345 0.0 0.0 0.0 5.8292796622928345 0.0 0.0 0.2914639831146417 17.487838986878504" Properties=species:S:1:pos:R:3 energy=-83.22905931917953 pbc="T T T"
P        4.37195975       1.45731992       1.47958682
In       2.91463983       0.00000000       2.93447612
P        1.45731992       1.45731992       4.38428886
P        4.37195975       4.37195975       4.38428886
In       2.91463983       2.91463983       0.03662967
P        1.45731992       4.37195975       1.47958682
In       0.00000000       0.00000000       0.03662967
In       0.00000000       2.91463983       2.93447612
P        4.37195975       1.45731992       7.28629032
In       2.91463983       0.00000000       8.73618903
P        1.45731992       1.45731992      10.19022132
P        4.37195975       4.37195975      10.19022132
In       2.91463983       2.91463983       5.83749188
P        1.45731992       4.37195975       7.28629032
In       0.00000000       0.00000000       5.83749188
In       0.00000000       2.91463983       8.73618903
P        4.37195975       1.45731992      13.09826655
In       2.91463983       0.00000000      14.55165006
P        1.45731992       1.45731992      16.00295026
P        4.37195975       4.37195975      16.00295026
In       2.91463983       2.91463983      11.64507354
P        1.45731992       4.37195975      13.09826655
In       0.00000000       0.00000000      11.64507354
In       0.00000000       2.91463983      14.55165006
24
Lattice="5.8292796622928345 0.0 0.0 0.0 5.8292796622928345 0.0 0.0 0.36432997889330215 17.487838986878504" Properties=species:S:1:pos:R:3 energy=-83.08629579398544 pbc="T T T"
P        4.37195975       1.45731992       1.48865332
In       2.91463983       0.00000000       2.94246932
P        1.45731992       1.45731992       4.38884485
P        4.37195975       4.37195975       4.38884485
In       2.91463983       2.91463983       0.05353295
P        1.45731992       4.37195975       1.48865332
In       0.00000000       0.00000000       0.05353295
In       0.00000000       2.91463983       2.94246932
P        4.37195975       1.45731992       7.28578384
In       2.91463983       0.00000000       8.73261892
P        1.45731992       1.45731992      10.18555458
P        4.37195975       4.37195975      10.18555458
In       2.91463983       2.91463983       5.84055205
P        1.45731992       4.37195975       7.28578384
In       0.00000000       0.00000000       5.84055205
In       0.00000000       2.91463983       8.73261892
P        4.37195975       1.45731992      13.09149062
In       2.91463983       0.00000000      14.54304918
P        1.45731992       1.45731992      15.99071953
P        4.37195975       4.37195975      15.99071953
In       2.91463983       2.91463983      11.63984527
P        1.45731992       4.37195975      13.09149062
In       0.00000000       0.00000000      11.63984527
In       0.00000000       2.91463983      14.54304918
24
Lattice="5.8292796622928345 0.0 0.0 0.0 5.8292796622928345 0.0 0.0 0.43719597467196264 17.487838986878504" Properties=species:S:1:pos:R:3 energy=-82.92977532227678 pbc="T T T"
P        4.37195975       1.45731992       1.49977490
In       2.91463983       0.00000000       2.95199986
P        1.45731992       1.45731992       4.39424951
P        4.37195975       4.37195975       4.39424951
In       2.91463983       2.91463983       0.07303618
P        1.45731992       4.37195975       1.49977490
In       0.00000000       0.00000000       0.07303618
In       0.00000000       2.91463983       2.95199986
P        4.37195975       1.45731992       7.28520597
In       2.91463983       0.00000000       8.72834427
P        1.45731992       1.45731992      10.17994762
P        4.37195975       4.37195975      10.17994762
In       2.91463983       2.91463983       5.84407694
P        1.45731992       4.37195975       7.28520597
In       0.00000000       0.00000000       5.84407694
In       0.00000000       2.91463983       8.72834427
P        4.37195975       1.45731992      13.08349153
In       2.91463983       0.00000000      14.53258507
P        1.45731992       1.45731992      15.97692937
P        4.37195975       4.37195975      15.97692937
In       2.91463983       2.91463983      11.63347321
P        1.45731992       4.37195975      13.08349153
In       0.00000000       0.00000000      11.63347321
In       0.00000000       2.91463983      14.53258507
24
Lattice="5.8292796622928345 0.0 0.0 0.0 5.8292796622928345 0.0 0.0 0.5100619704506231 17.487838986878504" Properties=species:S:1:pos:R:3 energy=-82.765306897448 pbc="T T T"
P        4.37195975       1.45731992       1.51099595
In       2.91463983       0.00000000       2.96156282
P        1.45731992       1.45731992       4.39953785
P        4.37195975       4.37195975       4.39953785
In       2.91463983       2.91463983       0.09329150
P        1.45731992       4.37195975       1.51099595
In       0.00000000       0.00000000       0.09329150
In       0.00000000       2.91463983       2.96156282
P        4.37195975       1.45731992       7.28443780
In       2.91463983       0.00000000       8.72381815
P        1.45731992       1.45731992      10.17410019
P        4.37195975       4.37195975      10.17410019
In       2.91463983       2.91463983       5.84762804
P        1.45731992       4.37195975       7.28443780
In       0.00000000       0.00000000       5.84762804
In       0.00000000       2.91463983       8.72381815
P        4.37195975       1.45731992      13.07570034
In       2.91463983       0.00000000      14.52219979
P        1.45731992       1.45731992      15.96273808
P        4.37195975       4.37195975      15.96273808
In       2.91463983       2.91463983      11.62710393
P        1.45731992       4.37195975      13.07570034
In       0.00000000       0.00000000      11.62710393
In       0.00000000       2.91463983      14.52219979
24
Lattice="5.8292796622928345 0.0 0.0 0.0 5.8292796622928345 0.0 0.0 0.5829279662292834 17.487838986878504" Properties=species:S:1:pos:R:3 energy=-82.59566239485657 pbc="T T T"
P        4.37195975       1.45731992       1.52086387
In       2.91463983       0.00000000       2.96987419
P        1.45731992       1.45731992       4.40389812
P        4.37195975       4.37195975       4.40389812
In       2.91463983       2.91463983       0.11219267
P        1.45731992       4.37195975       1.52086387
In       0.00000000       0.00000000       0.11219267
In       0.00000000       2.91463983       2.96987419
P        4.37195975       1.45731992       7.28350265
In       2.91463983       0.00000000       8.71952836
P        1.45731992       1.45731992      10.16883551
P        4.37195975       4.37195975      10.16883551
In       2.91463983       2.91463983       5.85062367
P        1.45731992       4.37195975       7.28350265
In       0.00000000       0.00000000       5.85062367
In       0.00000000       2.91463983       8.71952836
P        4.37195975       1.45731992      13.06949698
In       2.91463983       0.00000000      14.51376977
P        1.45731992       1.45731992      15.94854385
P        4.37195975       4.37195975      15.94854385
In       2.91463983       2.91463983      11.62198479
P        1.45731992       4.37195975      13.06949698
In       0.00000000       0.00000000      11.62198479
In       0.00000000       2.91463983      14.51376977
24
Lattice="5.8292796622928345 0.0 0.0 0.0 5.8292796622928345 0.0 0.0 0.6557939620079439 17.487838986878504" Properties=species:S:1:pos:R:3 energy=-82.42305533127458 pbc="T T T"
P        4.37195975       1.45731992       1.53060264
In       2.91463983       0.00000000       2.97793387
P        1.45731992       1.45731992       4.40802320
P        4.37195975       4.37195975       4.40802320
In       2.91463983       2.91463983       0.13084181
P        1.45731992       4.37195975       1.53060264
In       0.00000000       0.00000000       0.13084181
In       0.00000000       2.91463983       2.97793387
P        4.37195975       1.45731992       7.28247811
In       2.91463983       0.00000000       8.71519069
P        1.45731992       1.45731992      10.16360390
P        4.37195975       4.37195975      10.16360390
In       2.91463983       2.91463983       5.85350749
P        1.45731992       4.37195975       7.28247811
In       0.00000000       0.00000000       5.85350749
In       0.00000000       2.91463983       8.71519069
P        4.37195975       1.45731992      13.06376136
In       2.91463983       0.00000000      14.50566526
P        1.45731992       1.45731992      15.93441027
P        4.37195975       4.37195975      15.93441027
In       2.91463983       2.91463983      11.61709582
P        1.45731992       4.37195975      13.06376136
In       0.00000000       0.00000000      11.61709582
In       0.00000000       2.91463983      14.50566526
24
Lattice="5.8292796622928345 0.0 0.0 0.0 5.8292796622928345 0.0 0.0 0.7286599577866043 17.487838986878504" Properties=species:S:1:pos:R:3 energy=-82.25083154467035 pbc="T T T"
P        4.37195975       1.45731992       1.53970658
In       2.91463983       0.00000000       2.98542299
P        1.45731992       1.45731992       4.41169168
P        4.37195975       4.37195975       4.41169168
In       2.91463983       2.91463983       0.14895584
P        1.45731992       4.37195975       1.53970658
In       0.00000000       0.00000000       0.14895584
In       0.00000000       2.91463983       2.98542299
P        4.37195975       1.45731992       7.28133563
In       2.91463983       0.00000000       8.71088569
P        1.45731992       1.45731992      10.15859975
P        4.37195975       4.37195975      10.15859975
In       2.91463983       2.91463983       5.85612597
P        1.45731992       4.37195975       7.28133563
In       0.00000000       0.00000000       5.85612597
In       0.00000000       2.91463983       8.71088569
P        4.37195975       1.45731992      13.05874288
In       2.91463983       0.00000000      14.49811873
P        1.45731992       1.45731992      15.92091015
P        4.37195975       4.37195975      15.92091015
In       2.91463983       2.91463983      11.61261853
P        1.45731992       4.37195975      13.05874288
In       0.00000000       0.00000000      11.61261853
In       0.00000000       2.91463983      14.49811873
24
Lattice="5.8292796622928345 0.0 0.0 0.0 5.8292796622928345 0.0 0.0 0.8015259535652648 17.487838986878504" Properties=species:S:1:pos:R:3 energy=-82.08037841839729 pbc="T T T"
P        4.37195975       1.45731992       1.54629561
In       2.91463983       0.00000000       2.99068581
P        1.45731992       1.45731992       4.41391308
P        4.37195975       4.37195975       4.41391308
In       2.91463983       2.91463983       0.16391066
P        1.45731992       4.37195975       1.54629561
In       0.00000000       0.00000000       0.16391066
In       0.00000000       2.91463983       2.99068581
P        4.37195975       1.45731992       7.28030166
In       2.91463983       0.00000000       8.70772805
P        1.45731992       1.45731992      10.15551121
P        4.37195975       4.37195975      10.15551121
In       2.91463983       2.91463983       5.85802840
P        1.45731992       4.37195975       7.28030166
In       0.00000000       0.00000000       5.85802840
In       0.00000000       2.91463983       8.70772805
P        4.37195975       1.45731992      13.05596988
In       2.91463983       0.00000000      14.49192954
P        1.45731992       1.45731992      15.90747243
P        4.37195975       4.37195975      15.90747243
In       2.91463983       2.91463983      11.61136809
P        1.45731992       4.37195975      13.05596988
In       0.00000000       0.00000000      11.61136809
In       0.00000000       2.91463983      14.49192954
24
Lattice="5.8292796622928345 0.0 0.0 0.0 5.8292796622928345 0.0 0.0 0.8743919493439253 17.487838986878504" Properties=species:S:1:pos:R:3 energy=-81.91127679131398 pbc="T T T"
P        4.37195975       1.45731992       1.55035201
In       2.91463983       0.00000000       2.99278549
P        1.45731992       1.45731992       4.41446321
P        4.37195975       4.37195975       4.41446321
In       2.91463983       2.91463983       0.17676159
P        1.45731992       4.37195975       1.55035201
In       0.00000000       0.00000000       0.17676159
In       0.00000000       2.91463983       2.99278549
P        4.37195975       1.45731992       7.27934944
In       2.91463983       0.00000000       8.70539846
P        1.45731992       1.45731992      10.15382836
P        4.37195975       4.37195975      10.15382836
In       2.91463983       2.91463983       5.85900059
P        1.45731992       4.37195975       7.27934944
In       0.00000000       0.00000000       5.85900059
In       0.00000000       2.91463983       8.70539846
P        4.37195975       1.45731992      13.05546834
In       2.91463983       0.00000000      14.48853879
P        1.45731992       1.45731992      15.89501717
P        4.37195975       4.37195975      15.89501717
In       2.91463983       2.91463983      11.61215097
P        1.45731992       4.37195975      13.05546834
In       0.00000000       0.00000000      11.61215097
In       0.00000000       2.91463983      14.48853879
24
Lattice="5.8292796622928345 0.0 0.0 0.0 5.8292796622928345 0.0 0.0 0.9472579451225857 17.487838986878504" Properties=species:S:1:pos:R:3 energy=-81.74253898113878 pbc="T T T"
P        4.37195975       1.45731992       1.55466616
In       2.91463983       0.00000000       2.99514196
P        1.45731992       1.45731992       4.41561135
P        4.37195975       4.37195975       4.41561135
In       2.91463983       2.91463983       0.18877732
P        1.45731992       4.37195975       1.55466616
In       0.00000000       0.00000000       0.18877732
In       0.00000000       2.91463983       2.99514196
P        4.37195975       1.45731992       7.27870504
In       2.91463983       0.00000000       8.70316407
P        1.45731992       1.45731992      10.15201305
P        4.37195975       4.37195975      10.15201305
In       2.91463983       2.91463983       5.86037816
P        1.45731992       4.37195975       7.27870504
In       0.00000000       0.00000000       5.86037816
In       0.00000000       2.91463983       8.70316407
P        4.37195975       1.45731992      13.05464363
In       2.91463983       0.00000000      14.48516091
P        1.45731992       1.45731992      15.88226499
P        4.37195975       4.37195975      15.88226499
In       2.91463983       2.91463983      11.61258779
P        1.45731992       4.37195975      13.05464363
In       0.00000000       0.00000000      11.61258779
In       0.00000000       2.91463983      14.48516091
24
Lattice="5.8292796622928345 0.0 0.0 0.0 5.8292796622928345 0.0 0.0 1.0201239409012461 17.487838986878504" Properties=species:S:1:pos:R:3 energy=-81.57377651617182 pbc="T T T"
P        4.37195975       1.45731992       1.55857526
In       2.91463983       0.00000000       2.99733075
P        1.45731992       1.45731992       4.41673951
P        4.37195975       4.37195975       4.41673951
In       2.91463983       2.91463983       0.19983205
P        1.45731992       4.37195975       1.55857526
In       0.00000000       0.00000000       0.19983205
In       0.00000000       2.91463983       2.99733075
P        4.37195975       1.45731992       7.27834566
In       2.91463983       0.00000000       8.70124997
P        1.45731992       1.45731992      10.15026796
P        4.37195975       4.37195975      10.15026796
In       2.91463983       2.91463983       5.86199627
P        1.45731992       4.37195975       7.27834566
In       0.00000000       0.00000000       5.86199627
In       0.00000000       2.91463983       8.70124997
P        4.37195975       1.45731992      13.05410634
In       2.91463983       0.00000000      14.48186344
P        1.45731992       1.45731992      15.86986751
P        4.37195975       4.37195975      15.86986751
In       2.91463983       2.91463983      11.61293970
P        1.45731992       4.37195975      13.05410634
In       0.00000000       0.00000000      11.61293970
In       0.00000000       2.91463983      14.48186344
24
Lattice="5.8292796622928345 0.0 0.0 0.0 5.8292796622928345 0.0 0.0 1.0929899366799065 17.487838986878504" Properties=species:S:1:pos:R:3 energy=-81.40517344023175 pbc="T T T"
P        4.37195975       1.45731992       1.56196123
In       2.91463983       0.00000000       2.99916167
P        1.45731992       1.45731992       4.41763665
P        4.37195975       4.37195975       4.41763665
In       2.91463983       2.91463983       0.20979380
P        1.45731992       4.37195975       1.56196123
In       0.00000000       0.00000000       0.20979380
In       0.00000000       2.91463983       2.99916167
P        4.37195975       1.45731992       7.27779875
In       2.91463983       0.00000000       8.69921131
P        1.45731992       1.45731992      10.14873573
P        4.37195975       4.37195975      10.14873573
In       2.91463983       2.91463983       5.86332344
P        1.45731992       4.37195975       7.27779875
In       0.00000000       0.00000000       5.86332344
In       0.00000000       2.91463983       8.69921131
P        4.37195975       1.45731992      13.05404371
In       2.91463983       0.00000000      14.47924582
P        1.45731992       1.45731992      15.85872639
P        4.37195975       4.37195975      15.85872639
In       2.91463983       2.91463983      11.61347594
P        1.45731992       4.37195975      13.05404371
In       0.00000000       0.00000000      11.61347594
In       0.00000000       2.91463983      14.47924582
24
Lattice="5.8292796622928345 0.0 0.0 0.0 5.8292796622928345 0.0 0.0 1.165855932458567 17.487838986878504" Properties=species:S:1:pos:R:3 energy=-81.23786130538754 pbc="T T T"
P        4.37195975       1.45731992       1.56416722
In       2.91463983       0.00000000       2.99993339
P        1.45731992       1.45731992       4.41812166
P        4.37195975       4.37195975       4.41812166
In       2.91463983       2.91463983       0.21770491
P        1.45731992       4.37195975       1.56416722
In       0.00000000       0.00000000       0.21770491
In       0.00000000       2.91463983       2.99993339
P        4.37195975       1.45731992       7.27748218
In       2.91463983       0.00000000       8.69754348
P        1.45731992       1.45731992      10.14755602
P        4.37195975       4.37195975      10.14755602
In       2.91463983       2.91463983       5.86458997
P        1.45731992       4.37195975       7.27748218
In       0.00000000       0.00000000       5.86458997
In       0.00000000       2.91463983       8.69754348
P        4.37195975       1.45731992      13.05483874
In       2.91463983       0.00000000      14.47775959
P        1.45731992       1.45731992      15.84908264
P        4.37195975       4.37195975      15.84908264
In       2.91463983       2.91463983      11.61433463
P        1.45731992       4.37195975      13.05483874
In       0.00000000       0.00000000      11.61433463
In       0.00000000       2.91463983      14.47775959
24
Lattice="5.8292796622928345 0.0 0.0 0.0 5.8292796622928345 0.0 0.0 1.2387219282372275 17.487838986878504" Properties=species:S:1:pos:R:3 energy=-81.07364368682518 pbc="T T T"
P        4.37195975       1.45731992       1.56515072
In       2.91463983       0.00000000       2.99942133
P        1.45731992       1.45731992       4.41760455
P        4.37195975       4.37195975       4.41760455
In       2.91463983       2.91463983       0.22418077
P        1.45731992       4.37195975       1.56515072
In       0.00000000       0.00000000       0.22418077
In       0.00000000       2.91463983       2.99942133
P        4.37195975       1.45731992       7.27673559
In       2.91463983       0.00000000       8.69584145
P        1.45731992       1.45731992      10.14669927
P        4.37195975       4.37195975      10.14669927
In       2.91463983       2.91463983       5.86498343
P        1.45731992       4.37195975       7.27673559
In       0.00000000       0.00000000       5.86498343
In       0.00000000       2.91463983       8.69584145
P        4.37195975       1.45731992      13.05712869
In       2.91463983       0.00000000      14.47814359
P        1.45731992       1.45731992      15.84128848
P        4.37195975       4.37195975      15.84128848
In       2.91463983       2.91463983      11.61593656
P        1.45731992       4.37195975      13.05712869
In       0.00000000       0.00000000      11.61593656
In       0.00000000       2.91463983      14.47814359
24
Lattice="5.8292796622928345 0.0 0.0 0.0 5.8292796622928345 0.0 0.0 1.3115879240158879 17.487838986878504" Properties=species:S:1:pos:R:3 energy=-80.91321158413405 pbc="T T T"
P        4.37195975       1.45731992       1.56424461
In       2.91463983       0.00000000       2.99778518
P        1.45731992       1.45731992       4.41665051
P        4.37195975       4.37195975       4.41665051
In       2.91463983       2.91463983       0.22743541
P        1.45731992       4.37195975       1.56424461
In       0.00000000       0.00000000       0.22743541
In       0.00000000       2.91463983       2.99778518
P        4.37195975       1.45731992       7.27673487
In       2.91463983       0.00000000       8.69525771
P        1.45731992       1.45731992      10.14709682
P        4.37195975       4.37195975      10.14709682
In       2.91463983       2.91463983       5.86561362
P        1.45731992       4.37195975       7.27673487
In       0.00000000       0.00000000       5.86561362
In       0.00000000       2.91463983       8.69525771
P        4.37195975       1.45731992      13.06044470
In       2.91463983       0.00000000      14.47921232
P        1.45731992       1.45731992      15.83380677
P        4.37195975       4.37195975      15.83380677
In       2.91463983       2.91463983      11.61883191
P        1.45731992       4.37195975      13.06044470
In       0.00000000       0.00000000      11.61883191
In       0.00000000       2.91463983      14.47921232
24
Lattice="5.8292796622928345 0.0 0.0 0.0 5.8292796622928345 0.0 0.0 1.3844539197945482 17.487838986878504" Properties=species:S:1:pos:R:3 energy=-80.75750432449743 pbc="T T T"
P        4.37195975       1.45731992       1.56200900
In       2.91463983       0.00000000       2.99535021
P        1.45731992       1.45731992       4.41512477
P        4.37195975       4.37195975       4.41512477
In       2.91463983       2.91463983       0.22850929
P        1.45731992       4.37195975       1.56200900
In       0.00000000       0.00000000       0.22850929
In       0.00000000       2.91463983       2.99535021
P        4.37195975       1.45731992       7.27686060
In       2.91463983       0.00000000       8.69507790
P        1.45731992       1.45731992      10.14807272
P        4.37195975       4.37195975      10.14807272
In       2.91463983       2.91463983       5.86601710
P        1.45731992       4.37195975       7.27686060
In       0.00000000       0.00000000       5.86601710
In       0.00000000       2.91463983       8.69507790
P        4.37195975       1.45731992      13.06479414
In       2.91463983       0.00000000      14.48143797
P        1.45731992       1.45731992      15.82748792
P        4.37195975       4.37195975      15.82748792
In       2.91463983       2.91463983      11.62237281
P        1.45731992       4.37195975      13.06479414
In       0.00000000       0.00000000      11.62237281
In       0.00000000       2.91463983      14.48143797
24
Lattice="5.8292796622928345 0.0 0.0 0.0 5.8292796622928345 0.0 0.0 1.4573199155732086 17.487838986878504" Properties=species:S:1:pos:R:3 energy=-80.60742679013066 pbc="T T T"
P        4.37195975       1.45731992       1.55857255
In       2.91463983       0.00000000       2.99217427
P        1.45731992       1.45731992       4.41304302
P        4.37195975       4.37195975       4.41304302
In       2.91463983       2.91463983       0.22738700
P        1.45731992       4.37195975       1.55857255