24
Lattice="4.12192317864009 0.0 0.0 -8.433108806089936e-17 7.139380370300444 -4.440892098500626e-16 2.8331974352221744e-15 -1.7763568394002505e-15 20.193217093238268" Properties=species:S:1:pos:R:3 energy=-83.53392680904787 pbc="T T T"
In       2.06096159       3.56969019       0.00000000
P        2.06096159       3.56969019       2.52415214
In       0.00000000       0.00000000       0.00000000
P        0.00000000      -0.00000000       2.52415214
In      -0.00000000       2.37979346       3.36553618
P        0.00000000       2.37979346       5.88968832
In       2.06096159       5.94948364       3.36553618
P        2.06096159       5.94948364       5.88968832
In       2.06096159       1.18989673       6.73107236
P        2.06096159       1.18989673       9.25522450
In       0.00000000       4.75958691       6.73107236
P        0.00000000       4.75958691       9.25522450
In       2.06096159       3.56969019      10.09660855
P        2.06096159       3.56969019      12.62076068
In       0.00000000      -0.00000000      10.09660855
P        0.00000000      -0.00000000      12.62076068
In       0.00000000       2.37979346      13.46214473
P        0.00000000       2.37979346      15.98629687
In       2.06096159       5.94948364      13.46214473
P        2.06096159       5.94948364      15.98629687
In       2.06096159       1.18989673      16.82768091
P        2.06096159       1.18989673      19.35183305
In       0.00000000       4.75958691      16.82768091
P        0.00000000       4.75958691      19.35183305
24
Lattice="4.12192317864009 0.0 0.0 -8.433108806089939e-17 7.139380370300444 -4.4408920985006257e-16 2.8331974352221744e-15 0.029747418209583404 20.19321709323826" Properties=species:S:1:pos:R:3 energy=-83.52730997606686 pbc="T T T"
In       2.06096159       3.56969019       0.00060039
P        2.06096159       3.56969019       2.52434546
In       0.00000000       0.00000000       0.00060039
P        0.00000000      -0.00000000       2.52434546
In      -0.00000000       2.37979346       3.36556838
P        0.00000000       2.37979346       5.88965258
In       2.06096159       5.94948364       3.36556838
P        2.06096159       5.94948364       5.88965258
In       2.06096159       1.18989673       6.73105674
P        2.06096159       1.18989673       9.25521446
In       0.00000000       4.75958691       6.73105674
P        0.00000000       4.75958691       9.25521446
In       2.06096159       3.56969019      10.09659696
P        2.06096159       3.56969019      12.62075942
In       0.00000000      -0.00000000      10.09659696
P        0.00000000      -0.00000000      12.62075942
In       0.00000000       2.37979346      13.46217633
P        0.00000000       2.37979346      15.98628824
In       2.06096159       5.94948364      13.46217633
P        2.06096159       5.94948364      15.98628824
In       2.06096159       1.18989673      16.82740393
P        2.06096159       1.18989673      19.35133541
In       0.00000000       4.75958691      16.82740393
P        0.00000000       4.75958691      19.35133541
24
Lattice="4.12192317864009 0.0 0.0 -8.433108806089945e-17 7.139380370300444 -4.440892098500625e-16 2.8331974352221744e-15 0.05949483641916863 20.19321709323825" Properties=species:S:1:pos:R:3 energy=-83.50818167233678 pbc="T T T"
In       2.06096159       3.56969019       0.00288494
P        2.06096159       3.56969019       2.52583590
In      -0.00000000       0.00000000       0.00288494
P        0.00000000      -0.00000000       2.52583590
In      -0.00000000       2.37979346       3.36663959
P        0.00000000       2.37979346       5.89033743
In       2.06096159       5.94948364       3.36663959
P        2.06096159       5.94948364       5.89033743
In       2.06096159       1.18989673       6.73116093
P        2.06096159       1.18989673       9.25509843
In       0.00000000       4.75958691       6.73116093
P        0.00000000       4.75958691       9.25509843
In       2.06096159       3.56969019      10.09643916
P        2.06096159       3.56969019      12.62044266
In       0.00000000      -0.00000000      10.09643916
P        0.00000000      -0.00000000      12.62044266
In       0.00000000       2.37979346      13.46137795
P        0.00000000       2.37979346      15.98536050
In       2.06096159       5.94948364      13.46137795
P        2.06096159       5.94948364      15.98536050
In       2.06096159       1.18989673      16.82580934
P        2.06096159       1.18989673      19.34961146
In       0.00000000       4.75958691      16.82580934
P        0.00000000       4.75958691      19.34961146
24
Lattice="4.12192317864009 0.0 0.0 -8.433108806089951e-17 7.139380370300444 -4.440892098500625e-16 2.8331974352221744e-15 0.08924225462875394 20.19321709323825" Properties=species:S:1:pos:R:3 energy=-83.47777901769715 pbc="T T T"
In       2.06096159       3.56969019       0.00677121
P        2.06096159       3.56969019       2.52825117
In      -0.00000000       0.00000000       0.00677121
P        0.00000000      -0.00000000       2.52825117
In      -0.00000000       2.37979346       3.36847850
P        0.00000000       2.37979346       5.89152241
In       2.06096159       5.94948364       3.36847850
P        2.06096159       5.94948364       5.89152241
In       2.06096159       1.18989673       6.73165448
P        2.06096159       1.18989673       9.25515427
In       0.00000000       4.75958691       6.73165448
P        0.00000000       4.75958691       9.25515427
In       2.06096159       3.56969019      10.09591496
P        2.06096159       3.56969019      12.61964213
In       0.00000000      -0.00000000      10.09591496
P        0.00000000      -0.00000000      12.61964213
In       0.00000000       2.37979346      13.45998047
P        0.00000000       2.37979346      15.98375676
In       2.06096159       5.94948364      13.45998047
P        2.06096159       5.94948364      15.98375676
In       2.06096159       1.18989673      16.82314353
P        2.06096159       1.18989673      19.34672840
In       0.00000000       4.75958691      16.82314353
P        0.00000000       4.75958691      19.34672840
24
Lattice="4.12192317864009 0.0 0.0 -8.433108806089952e-17 7.139380370300444 -4.440892098500625e-16 2.8331974352221744e-15 0.11898967283833894 20.19321709323825" Properties=species:S:1:pos:R:3 energy=-83.43757555818142 pbc="T T T"
In       2.06096159       3.56969019       0.01235286
P        2.06096159       3.56969019       2.53194805
In       0.00000000       0.00000000       0.01235286
P        0.00000000      -0.00000000       2.53194805
In      -0.00000000       2.37979346       3.37094045
P        0.00000000       2.37979346       5.89324773
In       2.06096159       5.94948364       3.37094045
P        2.06096159       5.94948364       5.89324773
In       2.06096159       1.18989673       6.73235924
P        2.06096159       1.18989673       9.25521255
In       0.00000000       4.75958691       6.73235924
P        0.00000000       4.75958691       9.25521255
In       2.06096159       3.56969019      10.09525814
P        2.06096159       3.56969019      12.61850653
In       0.00000000      -0.00000000      10.09525814
P        0.00000000      -0.00000000      12.61850653
In       0.00000000       2.37979346      13.45796243
P        0.00000000       2.37979346      15.98159875
In       2.06096159       5.94948364      13.45796243
P        2.06096159       5.94948364      15.98159875
In       2.06096159       1.18989673      16.81899004
P        2.06096159       1.18989673      19.34262151
In       0.00000000       4.75958691      16.81899004
P        0.00000000       4.75958691      19.34262151
24
Lattice="4.12192317864009 0.0 0.0 -8.433108806089952e-17 7.139380370300444 -4.440892098500625e-16 2.8331974352221744e-15 0.14873709104792412 20.19321709323825" Properties=species:S:1:pos:R:3 energy=-83.38900123950185 pbc="T T T"
In       2.06096159       3.56969019       0.01896930
P        2.06096159       3.56969019       2.53628366
In       0.00000000       0.00000000       0.01896930
P        0.00000000      -0.00000000       2.53628366
In      -0.00000000       2.37979346       3.37380681
P        0.00000000       2.37979346       5.89516017
In       2.06096159       5.94948364       3.37380681
P        2.06096159       5.94948364       5.89516017
In       2.06096159       1.18989673       6.73305730
P        2.06096159       1.18989673       9.25520691
In       0.00000000       4.75958691       6.73305730
P        0.00000000       4.75958691       9.25520691
In       2.06096159       3.56969019      10.09453937
P        2.06096159       3.56969019      12.61730177
In       0.00000000      -0.00000000      10.09453937
P        0.00000000      -0.00000000      12.61730177
In       0.00000000       2.37979346      13.45570482
P        0.00000000       2.37979346      15.97911665
In       2.06096159       5.94948364      13.45570482
P        2.06096159       5.94948364      15.97911665
In       2.06096159       1.18989673      16.81413059
P        2.06096159       1.18989673      19.33772093
In       0.00000000       4.75958691      16.81413059
P        0.00000000       4.75958691      19.33772093
24
Lattice="4.12192317864009 0.0 0.0 -8.433108806089954e-17 7.139380370300444 -4.440892098500625e-16 2.8331974352221744e-15 0.17848450925750933 20.19321709323825" Properties=species:S:1:pos:R:3 energy=-83.33318915544217 pbc="T T T"
In       2.06096159       3.56969019       0.02607241
P        2.06096159       3.56969019       2.54057627
In       0.00000000       0.00000000       0.02607241
P        0.00000000      -0.00000000       2.54057627
In      -0.00000000       2.37979346       3.37667042
P        0.00000000       2.37979346       5.89691043
In       2.06096159       5.94948364       3.37667042
P        2.06096159       5.94948364       5.89691043
In       2.06096159       1.18989673       6.73368965
P        2.06096159       1.18989673       9.25517255
In       0.00000000       4.75958691       6.73368965
P        0.00000000       4.75958691       9.25517255
In       2.06096159       3.56969019      10.09375317
P        2.06096159       3.56969019      12.61612054
In       0.00000000      -0.00000000      10.09375317
P        0.00000000      -0.00000000      12.61612054
In       0.00000000       2.37979346      13.45358257
P        0.00000000       2.37979346      15.97672760
In       2.06096159       5.94948364      13.45358257
P        2.06096159       5.94948364      15.97672760
In       2.06096159       1.18989673      16.80928964
P        2.06096159       1.18989673      19.33243302
In       0.00000000       4.75958691      16.80928964
P        0.00000000       4.75958691      19.33243302
24
Lattice="4.12192317864009 0.0 0.0 -8.43310880608995e-17 7.139380370300444 -4.440892098500625e-16 2.8331974352221744e-15 0.20823192746709482 20.19321709323825" Properties=species:S:1:pos:R:3 energy=-83.27118778978097 pbc="T T T"
In       2.06096159       3.56969019       0.03369204
P        2.06096159       3.56969019       2.54505577
In      -0.00000000       0.00000000       0.03369204
P        0.00000000      -0.00000000       2.54505577
In      -0.00000000       2.37979346       3.37962727
P        0.00000000       2.37979346       5.89876259
In       2.06096159       5.94948364       3.37962727
P        2.06096159       5.94948364       5.89876259
In       2.06096159       1.18989673       6.73431608
P        2.06096159       1.18989673       9.25507582
In       0.00000000       4.75958691       6.73431608
P        0.00000000       4.75958691       9.25507582
In       2.06096159       3.56969019      10.09294028
P        2.06096159       3.56969019      12.61485603
In       0.00000000      -0.00000000      10.09294028
P        0.00000000      -0.00000000      12.61485603
In       0.00000000       2.37979346      13.45134360
P        0.00000000       2.37979346      15.97431125
In       2.06096159       5.94948364      13.45134360
P        2.06096159       5.94948364      15.97431125
In       2.06096159       1.18989673      16.80426816
P        2.06096159       1.18989673      19.32674939
In       0.00000000       4.75958691      16.80426816
P        0.00000000       4.75958691      19.32674939
24
Lattice="4.12192317864009 0.0 0.0 -8.43310880608995e-17 7.139380370300444 -4.440892098500625e-16 2.8331974352221744e-15 0.23797934567667967 20.193217093238253" Properties=species:S:1:pos:R:3 energy=-83.2040199086164 pbc="T T T"
In       2.06096159       3.56969019       0.04168293
P        2.06096159       3.56969019       2.54962305
In       0.00000000       0.00000000       0.04168293
P        0.00000000      -0.00000000       2.54962305
In      -0.00000000       2.37979346       3.38261770
P        0.00000000       2.37979346       5.90060634
In       2.06096159       5.94948364       3.38261770
P        2.06096159       5.94948364       5.90060634
In       2.06096159       1.18989673       6.73491317
P        2.06096159       1.18989673       9.25493525
In       0.00000000       4.75958691       6.73491317
P        0.00000000       4.75958691       9.25493525
In       2.06096159       3.56969019      10.09209708
P        2.06096159       3.56969019      12.61356554
In       0.00000000      -0.00000000      10.09209708
P        0.00000000      -0.00000000      12.61356554
In       0.00000000       2.37979346      13.44910608
P        0.00000000       2.37979346      15.97194427
In       2.06096159       5.94948364      13.44910608
P        2.06096159       5.94948364      15.97194427
In       2.06096159       1.18989673      16.79915309
P        2.06096159       1.18989673      19.32075378
In       0.00000000       4.75958691      16.79915309
P        0.00000000       4.75958691      19.32075378
24
Lattice="4.12192317864009 0.0 0.0 -8.43310880608995e-17 7.139380370300444 -4.440892098500625e-16 2.8331974352221744e-15 0.2677267638862655 20.193217093238253" Properties=species:S:1:pos:R:3 energy=-83.13263076252665 pbc="T T T"
In       2.06096159       3.56969019       0.04991290
P        2.06096159       3.56969019       2.55418378
In      -0.00000000       0.00000000       0.04991290
P        0.00000000      -0.00000000       2.55418378
In      -0.00000000       2.37979346       3.38551748
P        0.00000000       2.37979346       5.90236452
In       2.06096159       5.94948364       3.38551748
P        2.06096159       5.94948364       5.90236452
In       2.06096159       1.18989673       6.73544222
P        2.06096159       1.18989673       9.25474214
In       0.00000000       4.75958691       6.73544222
P        0.00000000       4.75958691       9.25474214
In       2.06096159       3.56969019      10.09125296
P        2.06096159       3.56969019      12.61229448
In       0.00000000      -0.00000000      10.09125296
P        0.00000000      -0.00000000      12.61229448
In       0.00000000       2.37979346      13.44695327
P        0.00000000       2.37979346      15.96972571
In       2.06096159       5.94948364      13.44695327
P        2.06096159       5.94948364      15.96972571
In       2.06096159       1.18989673      16.79403823
P        2.06096159       1.18989673      19.31457059
In       0.00000000       4.75958691      16.79403823
P        0.00000000       4.75958691      19.31457059
24
Lattice="4.12192317864009 0.0 0.0 -8.43310880608995e-17 7.139380370300444 -4.440892098500625e-16 2.8331974352221744e-15 0.29747418209585 20.193217093238253" Properties=species:S:1:pos:R:3 energy=-83.0579096589741 pbc="T T T"
In       2.06096159       3.56969019       0.05834508
P        2.06096159       3.56969019       2.55875573
In       0.00000000       0.00000000       0.05834508
P        0.00000000      -0.00000000       2.55875573
In      -0.00000000       2.37979346       3.38838254
P        0.00000000       2.37979346       5.90406268
In       2.06096159       5.94948364       3.38838254
P        2.06096159       5.94948364       5.90406268
In       2.06096159       1.18989673       6.73591801
P        2.06096159       1.18989673       9.25450105
In       0.00000000       4.75958691       6.73591801
P        0.00000000       4.75958691       9.25450105
In       2.06096159       3.56969019      10.09039923
P        2.06096159       3.56969019      12.61104411
In       0.00000000      -0.00000000      10.09039923
P        0.00000000      -0.00000000      12.61104411
In       0.00000000       2.37979346      13.44484786
P        0.00000000       2.37979346      15.96759543
In       2.06096159       5.94948364      13.44484786
P        2.06096159       5.94948364      15.96759543
In       2.06096159       1.18989673      16.78892309
P        2.06096159       1.18989673      19.30822347
In       0.00000000       4.75958691      16.78892309
P        0.00000000       4.75958691      19.30822347
24
Lattice="4.12192317864009 0.0 0.0 -8.43310880608995e-17 7.139380370300444 -4.440892098500625e-16 2.8331974352221744e-15 0.3272216003054358 20.193217093238253" Properties=species:S:1:pos:R:3 energy=-82.9806912468571 pbc="T T T"
In       2.06096159       3.56969019       0.06689272
P        2.06096159       3.56969019       2.56330182
In      -0.00000000       0.00000000       0.06689272
P        0.00000000      -0.00000000       2.56330182
In      -0.00000000       2.37979346       3.39119697
P        0.00000000       2.37979346       5.90569587
In       2.06096159       5.94948364       3.39119697
P        2.06096159       5.94948364       5.90569587
In       2.06096159       1.18989673       6.73635094
P        2.06096159       1.18989673       9.25422818
In       0.00000000       4.75958691       6.73635094
P        0.00000000       4.75958691       9.25422818
In       2.06096159       3.56969019      10.08955543
P        2.06096159       3.56969019      12.60984212
In       0.00000000      -0.00000000      10.08955543
P        0.00000000      -0.00000000      12.60984212
In       0.00000000       2.37979346      13.44280326
P        0.00000000       2.37979346      15.96556164
In       2.06096159       5.94948364      13.44280326
P        2.06096159       5.94948364      15.96556164
In       2.06096159       1.18989673      16.78382070
P        2.06096159       1.18989673      19.30174864
In       0.00000000       4.75958691      16.78382070
P        0.00000000       4.75958691      19.30174864
24
Lattice="4.12192317864009 0.0 0.0 -8.433108806089948e-17 7.139380370300444 -4.4408920985006257e-16 2.8331974352221744e-15 0.35696901851502044 20.193217093238257" Properties=species:S:1:pos:R:3 energy=-82.90175287177055 pbc="T T T"
In       2.06096159       3.56969019       0.07553364
P        2.06096159       3.56969019       2.56784881
In       0.00000000       0.00000000       0.07553364
P        0.00000000      -0.00000000       2.56784881
In      -0.00000000       2.37979346       3.39397499
P        0.00000000       2.37979346       5.90726887
In       2.06096159       5.94948364       3.39397499
P        2.06096159       5.94948364       5.90726887
In       2.06096159       1.18989673       6.73669853
P        2.06096159       1.18989673       9.25398226
In       0.00000000       4.75958691       6.73669853
P        0.00000000       4.75958691       9.25398226
In       2.06096159       3.56969019      10.08872405
P        2.06096159       3.56969019      12.60861095
In       0.00000000      -0.00000000      10.08872405
P        0.00000000      -0.00000000      12.60861095
In       0.00000000       2.37979346      13.44082624
P        0.00000000       2.37979346      15.96355988
In       2.06096159       5.94948364      13.44082624
P        2.06096159       5.94948364      15.96355988
In       2.06096159       1.18989673      16.77877681
P        2.06096159       1.18989673      19.29519325
In       0.00000000       4.75958691      16.77877681
P        0.00000000       4.75958691      19.29519325
24
Lattice="4.12192317864009 0.0 0.0 -8.433108806089948e-17 7.139380370300444 -4.4408920985006257e-16 2.8331974352221744e-15 0.3867164367246056 20.193217093238257" Properties=species:S:1:pos:R:3 energy=-82.82180891277235 pbc="T T T"
In       2.06096159       3.56969019       0.08424589
P        2.06096159       3.56969019       2.57234815
In       0.00000000       0.00000000       0.08424589
P        0.00000000      -0.00000000       2.57234815
In      -0.00000000       2.37979346       3.39668538
P        0.00000000       2.37979346       5.90877316
In       2.06096159       5.94948364       3.39668538
P        2.06096159       5.94948364       5.90877316
In       2.06096159       1.18989673       6.73700845
P        2.06096159       1.18989673       9.25364420
In       0.00000000       4.75958691       6.73700845
P        0.00000000       4.75958691       9.25364420
In       2.06096159       3.56969019      10.08786630
P        2.06096159       3.56969019      12.60741461
In       0.00000000      -0.00000000      10.08786630
P        0.00000000      -0.00000000      12.60741461
In       0.00000000       2.37979346      13.43885793
P        0.00000000       2.37979346      15.96169996
In       2.06096159       5.94948364      13.43885793
P        2.06096159       5.94948364      15.96169996
In       2.06096159       1.18989673      16.77380068
P        2.06096159       1.18989673      19.28865357
In       0.00000000       4.75958691      16.77380068
P        0.00000000       4.75958691      19.28865357
24
Lattice="4.12192317864009 0.0 0.0 -8.433108806089949e-17 7.139380370300444 -4.4408920985006257e-16 2.8331974352221744e-15 0.41646385493419136 20.193217093238257" Properties=species:S:1:pos:R:3 energy=-82.74151350612604 pbc="T T T"
In       2.06096159       3.56969019       0.09295025
P        2.06096159       3.56969019       2.57680731
In      -0.00000000       0.00000000       0.09295025
P        0.00000000      -0.00000000       2.57680731
In      -0.00000000       2.37979346       3.39927144
P        0.00000000       2.37979346       5.91015884
In       2.06096159       5.94948364       3.39927144
P        2.06096159       5.94948364       5.91015884
In       2.06096159       1.18989673       6.73726866
P        2.06096159       1.18989673       9.25315816
In       0.00000000       4.75958691       6.73726866
P        0.00000000       4.75958691       9.25315816
In       2.06096159       3.56969019      10.08696229
P        2.06096159       3.56969019      12.60625877
In       0.00000000      -0.00000000      10.08696229
P        0.00000000      -0.00000000      12.60625877
In       0.00000000       2.37979346      13.43698327
P        0.00000000       2.37979346      15.96005949
In       2.06096159       5.94948364      13.43698327
P        2.06096159       5.94948364      15.96005949
In       2.06096159       1.18989673      16.76889149
P        2.06096159       1.18989673      19.28222832
In       0.00000000       4.75958691      16.76889149
P        0.00000000       4.75958691      19.28222832
24
Lattice="4.12192317864009 0.0 0.0 -8.433108806089952e-17 7.139380370300444 -4.440892098500625e-16 2.8331974352221744e-15 0.44621127314377595 20.193217093238253" Properties=species:S:1:pos:R:3 energy=-82.66145994713582 pbc="T T T"
In       2.06096159       3.56969019       0.10165908
P        2.06096159       3.56969019       2.58123192
In       0.00000000       0.00000000       0.10165908
P        0.00000000      -0.00000000       2.58123192
In      -0.00000000       2.37979346       3.40177572
P        0.00000000       2.37979346       5.91145634
In       2.06096159       5.94948364       3.40177572
P        2.06096159       5.94948364       5.91145634
In       2.06096159       1.18989673       6.73738384
P        2.06096159       1.18989673       9.25268490
In       0.00000000       4.75958691       6.73738384
P        0.00000000       4.75958691       9.25268490
In       2.06096159       3.56969019      10.08606353
P        2.06096159       3.56969019      12.60506741
In       0.00000000      -0.00000000      10.08606353
P        0.00000000      -0.00000000      12.60506741
In       0.00000000       2.37979346      13.43517558
P        0.00000000       2.37979346      15.95848315
In       2.06096159       5.94948364      13.43517558
P        2.06096159       5.94948364      15.95848315
In       2.06096159       1.18989673      16.76417153
P        2.06096159       1.18989673      19.27584529
In       0.00000000       4.75958691      16.76417153
P        0.00000000       4.75958691      19.27584529
24
Lattice="4.12192317864009 0.0 0.0 -8.433108806089952e-17 7.139380370300444 -4.440892098500625e-16 2.8331974352221744e-15 0.4759586913533611 20.193217093238253" Properties=species:S:1:pos:R:3 energy=-82.58218588724795 pbc="T T T"
In       2.06096159       3.56969019       0.11031521
P        2.06096159       3.56969019       2.58561070
In       0.00000000       0.00000000       0.11031521
P        0.00000000      -0.00000000       2.58561070
In      -0.00000000       2.37979346       3.40418819
P        0.00000000       2.37979346       5.91267184
In       2.06096159       5.94948364       3.40418819
P        2.06096159       5.94948364       5.91267184
In       2.06096159       1.18989673       6.73746859
P        2.06096159       1.18989673       9.25216148
In       0.00000000       4.75958691       6.73746859
P        0.00000000       4.75958691       9.25216148
In       2.06096159       3.56969019      10.08514869
P        2.06096159       3.56969019      12.60388236
In       0.00000000      -0.00000000      10.08514869
P        0.00000000      -0.00000000      12.60388236
In       0.00000000       2.37979346      13.43340833
P        0.00000000       2.37979346      15.95699997
In       2.06096159       5.94948364      13.43340833
P        2.06096159       5.94948364      15.95699997
In       2.06096159       1.18989673      16.75954273
P        2.06096159       1.18989673      19.26960019
In       0.00000000       4.75958691      16.75954273
P        0.00000000       4.75958691      19.26960019
24
Lattice="4.12192317864009 0.0 0.0 -8.43310880608995e-17 7.139380370300444 -4.440892098500625e-16 2.8331974352221744e-15 0.5057061095629475 20.19321709323825" Properties=species:S:1:pos:R:3 energy=-82.50381105571951 pbc="T T T"
In       2.06096159       3.56969019       0.11816610
P        2.06096159       3.56969019       2.58935835
In      -0.00000000       0.00000000       0.11816610
P        0.00000000       0.00000000       2.58935835
In      -0.00000000       2.37979346       3.40608037
P        0.00000000       2.37979346       5.91349674
In       2.06096159       5.94948364       3.40608037
P        2.06096159       5.94948364       5.91349674
In       2.06096159       1.18989673       6.73737197
P        2.06096159       1.18989673       9.25156252
In       0.00000000       4.75958691       6.73737197
P        0.00000000       4.75958691       9.25156252
In       2.06096159       3.56969019      10.08430843
P        2.06096159       3.56969019      12.60288071
In       0.00000000       0.00000000      10.08430843
P        0.00000000       0.00000000      12.60288071
In       0.00000000       2.37979346      13.43210098
P        0.00000000       2.37979346      15.95604879
In       2.06096159       5.94948364      13.43210098
P        2.06096159       5.94948364      15.95604879
In       2.06096159       1.18989673      16.75592851
P        2.06096159       1.18989673      19.26369483
In       0.00000000       4.75958691      16.75592851
P        0.00000000       4.75958691      19.26369483
24
Lattice="4.12192317864009 0.0 0.0 -8.43310880608995e-17 7.139380370300444 -4.4408920985006247e-16 2.8331974352221744e-15 0.5354535277725315 20.19321709323824" Properties=species:S:1:pos:R:3 energy=-82.42630578821213 pbc="T T T"
In       2.06096159       3.56969019       0.12588590
P        2.06096159       3.56969019       2.59305730
In       0.00000000       0.00000000       0.12588590
P        0.00000000      -0.00000000       2.59305730
In      -0.00000000       2.37979346       3.40785972
P        0.00000000       2.37979346       5.91422316
In       2.06096159       5.94948364       3.40785972
P        2.06096159       5.94948364       5.91422316
In       2.06096159       1.18989673       6.73716215
P        2.06096159       1.18989673       9.25090240
In       0.00000000       4.75958691       6.73716215
P        0.00000000       4.75958691       9.25090240
In       2.06096159       3.56969019      10.08347352
P        2.06096159       3.56969019      12.60189221
In       0.00000000      -0.00000000      10.08347352
P        0.00000000      -0.00000000      12.60189221
In       0.00000000       2.37979346      13.43088848
P        0.00000000       2.37979346      15.95521351
In       2.06096159       5.94948364      13.43088848
P        2.06096159       5.94948364      15.95521351
In       2.06096159       1.18989673      16.75248996
P        2.06096159       1.18989673      19.25794998
In       0.00000000       4.75958691      16.75248996
P        0.00000000       4.75958691      19.25794998
24
Lattice="4.12192317864009 0.0 0.0 -8.43310880608995e-17 7.139380370300444 -4.4408920985006247e-16 2.8331974352221744e-15 0.5652009459821167 20.19321709323824" Properties=species:S:1:pos:R:3 energy=-82.35022765158763 pbc="T T T"
In       2.06096159       3.56969019       0.13354944
P        2.06096159       3.56969019       2.59690253
In       0.00000000       0.00000000       0.13354944
P        0.00000000      -0.00000000       2.59690253
In      -0.00000000       2.37979346       3.40963709
P        0.00000000       2.37979346       5.91495932
In       2.06096159       5.94948364       3.40963709
P        2.06096159       5.94948364       5.91495932
In       2.06096159       1.18989673       6.73693609
P        2.06096159       1.18989673       9.25020311
In       0.00000000       4.75958691       6.73693609
P        0.00000000       4.75958691       9.25020311
In       2.06096159       3.56969019      10.08261985