24
Lattice="4.121923178640091 0.0 0.0 0.0 4.121923178640091 0.0 0.0 0.0 34.97567797375701" Properties=species:S:1:pos:R:3 energy=-83.53392680904783 pbc="T T T"
P        2.06096159       0.00000000       4.37195975
In       0.00000000       0.00000000       0.00000000
P        0.00000000       2.06096159       1.45731992
In       2.06096159       2.06096159       2.91463983
P        2.06096159       0.00000000      10.20123941
In       0.00000000       0.00000000       5.82927966
P        0.00000000       2.06096159       7.28659958
In       2.06096159       2.06096159       8.74391949
P        2.06096159       0.00000000      16.03051907
In       0.00000000       0.00000000      11.65855932
P        0.00000000       2.06096159      13.11587924
In       2.06096159       2.06096159      14.57319916
P        2.06096159       0.00000000      21.85979873
In       0.00000000       0.00000000      17.48783899
P        0.00000000       2.06096159      18.94515890
In       2.06096159       2.06096159      20.40247882
P        2.06096159       0.00000000      27.68907840
In       0.00000000       0.00000000      23.31711865
P        0.00000000       2.06096159      24.77443856
In       2.06096159       2.06096159      26.23175848
P        2.06096159       0.00000000      33.51835806
In       0.00000000       0.00000000      29.14639831
P        0.00000000       2.06096159      30.60371823
In       2.06096159       2.06096159      32.06103814
24
Lattice="4.121923178640091 0.0 0.0 0.0 4.121923178640091 0.0 0.0 0.05152403973300114 34.97567797375701" Properties=species:S:1:pos:R:3 energy=-83.53196764429761 pbc="T T T"
P        2.06096159       0.00000000       4.37225068
In       0.00000000       0.00000000       0.00023712
P        0.00000000       2.06096159       1.45776946
In       2.06096159       2.06096159       2.91501187
P        2.06096159       0.00000000      10.20126067
In       0.00000000       0.00000000       5.82946718
P        0.00000000       2.06096159       7.28667487
In       2.06096159       2.06096159       8.74396146
P        2.06096159       0.00000000      16.03052024
In       0.00000000       0.00000000      11.65855534
P        0.00000000       2.06096159      13.11587892
In       2.06096159       2.06096159      14.57320011
P        2.06096159       0.00000000      21.85978359
In       0.00000000       0.00000000      17.48783559
P        0.00000000       2.06096159      18.94515494
In       2.06096159       2.06096159      20.40248466
P        2.06096159       0.00000000      27.68887511
In       0.00000000       0.00000000      23.31709347
P        0.00000000       2.06096159      24.77442537
In       2.06096159       2.06096159      26.23167905
P        2.06096159       0.00000000      33.51831659
In       0.00000000       0.00000000      29.14609744
P        0.00000000       2.06096159      30.60329670
In       2.06096159       2.06096159      32.06046625
24
Lattice="4.121923178640091 0.0 0.0 0.0 4.121923178640091 0.0 0.0 0.10304807946600228 34.97567797375701" Properties=species:S:1:pos:R:3 energy=-83.52631325828122 pbc="T T T"
P        2.06096159       0.00000000       4.37421389
In       0.00000000       0.00000000       0.00123483
P        0.00000000       2.06096159       1.45964643
In       2.06096159       2.06096159       2.91677081
P        2.06096159       0.00000000      10.20201976
In       0.00000000       0.00000000       5.83149585
P        0.00000000       2.06096159       7.28835228
In       2.06096159       2.06096159       8.74515200
P        2.06096159       0.00000000      16.03052919
In       0.00000000       0.00000000      11.65899314
P        0.00000000       2.06096159      13.11606933
In       2.06096159       2.06096159      14.57323640
P        2.06096159       0.00000000      21.85932868
In       0.00000000       0.00000000      17.48783755
P        0.00000000       2.06096159      18.94507789
In       2.06096159       2.06096159      20.40225904
P        2.06096159       0.00000000      27.68703750
In       0.00000000       0.00000000      23.31626579
P        0.00000000       2.06096159      24.77309798
In       2.06096159       2.06096159      26.22988767
P        2.06096159       0.00000000      33.51802584
In       0.00000000       0.00000000      29.14415671
P        0.00000000       2.06096159      30.60137252
In       2.06096159       2.06096159      32.05823562
24
Lattice="4.121923178640091 0.0 0.0 0.0 4.121923178640091 0.0 0.0 0.15457211919900343 34.97567797375701" Properties=species:S:1:pos:R:3 energy=-83.51758542699622 pbc="T T T"
P        2.06096159       0.00000000       4.37795970
In       0.00000000       0.00000000       0.00359984
P        0.00000000       2.06096159       1.46374033
In       2.06096159       2.06096159       2.92045636
P        2.06096159       0.00000000      10.20457288
In       0.00000000       0.00000000       5.83520903
P        0.00000000       2.06096159       7.29153489
In       2.06096159       2.06096159       8.74805650
P        2.06096159       0.00000000      16.03078264
In       0.00000000       0.00000000      11.66105171
P        0.00000000       2.06096159      13.11757628
In       2.06096159       2.06096159      14.57416824
P        2.06096159       0.00000000      21.85710540
In       0.00000000       0.00000000      17.48741986
P        0.00000000       2.06096159      18.94404568
In       2.06096159       2.06096159      20.40057762
P        2.06096159       0.00000000      27.68348797
In       0.00000000       0.00000000      23.31365602
P        0.00000000       2.06096159      24.77014713
In       2.06096159       2.06096159      26.22648797
P        2.06096159       0.00000000      33.51729281
In       0.00000000       0.00000000      29.14030851
P        0.00000000       2.06096159      30.59745472
In       2.06096159       2.06096159      32.05360460
24
Lattice="4.121923178640091 0.0 0.0 0.0 4.121923178640091 0.0 0.0 0.20609615893200456 34.97567797375701" Properties=species:S:1:pos:R:3 energy=-83.50652363628771 pbc="T T T"
P        2.06096159       0.00000000       4.38156747
In       0.00000000       0.00000000       0.00574239
P        0.00000000       2.06096159       1.46755315
In       2.06096159       2.06096159       2.92388354
P        2.06096159       0.00000000      10.20664802
In       0.00000000       0.00000000       5.83890330
P        0.00000000       2.06096159       7.29462139
In       2.06096159       2.06096159       8.75064803
P        2.06096159       0.00000000      16.03093292
In       0.00000000       0.00000000      11.66259715
P        0.00000000       2.06096159      13.11862184
In       2.06096159       2.06096159      14.57475480
P        2.06096159       0.00000000      21.85539990
In       0.00000000       0.00000000      17.48714938
P        0.00000000       2.06096159      18.94333045
In       2.06096159       2.06096159      20.39936110
P        2.06096159       0.00000000      27.68002582
In       0.00000000       0.00000000      23.31146101
P        0.00000000       2.06096159      24.76743485
In       2.06096159       2.06096159      26.22317482
P        2.06096159       0.00000000      33.51701133
In       0.00000000       0.00000000      29.13666108
P        0.00000000       2.06096159      30.59370837
In       2.06096159       2.06096159      32.04910459
24
Lattice="4.121923178640091 0.0 0.0 0.0 4.121923178640091 0.0 0.0 0.2576201986650057 34.97567797375701" Properties=species:S:1:pos:R:3 energy=-83.49323971095117 pbc="T T T"
P        2.06096159       0.00000000       4.38366831
In       0.00000000       0.00000000       0.00645377
P        0.00000000       2.06096159       1.46920187
In       2.06096159       2.06096159       2.92543040
P        2.06096159       0.00000000      10.20799168
In       0.00000000       0.00000000       5.84135720
P        0.00000000       2.06096159       7.29667592
In       2.06096159       2.06096159       8.75230332
P        2.06096159       0.00000000      16.03103351
In       0.00000000       0.00000000      11.66369490
P        0.00000000       2.06096159      13.11942353
In       2.06096159       2.06096159      14.57519409
P        2.06096159       0.00000000      21.85427503
In       0.00000000       0.00000000      17.48689945
P        0.00000000       2.06096159      18.94269460
In       2.06096159       2.06096159      20.39843690
P        2.06096159       0.00000000      27.67788055
In       0.00000000       0.00000000      23.31003655
P        0.00000000       2.06096159      24.76566594
In       2.06096159       2.06096159      26.22094343
P        2.06096159       0.00000000      33.51802822
In       0.00000000       0.00000000      29.13473631
P        0.00000000       2.06096159      30.59173301
In       2.06096159       2.06096159      32.04653821
24
Lattice="4.121923178640091 0.0 0.0 0.0 4.121923178640091 0.0 0.0 0.30914423839800687 34.97567797375701" Properties=species:S:1:pos:R:3 energy=-83.4779100198141 pbc="T T T"
P        2.06096159       0.00000000       4.38386476
In       0.00000000       0.00000000       0.00506326
P        0.00000000       2.06096159       1.46818679
In       2.06096159       2.06096159       2.92460552
P        2.06096159       0.00000000      10.20857761
In       0.00000000       0.00000000       5.84224884
P        0.00000000       2.06096159       7.29763028
In       2.06096159       2.06096159       8.75309667
P        2.06096159       0.00000000      16.03107780
In       0.00000000       0.00000000      11.66412710
P        0.00000000       2.06096159      13.11967422
In       2.06096159       2.06096159      14.57533055
P        2.06096159       0.00000000      21.85375151
In       0.00000000       0.00000000      17.48681935
P        0.00000000       2.06096159      18.94246758
In       2.06096159       2.06096159      20.39804166
P        2.06096159       0.00000000      27.67734814
In       0.00000000       0.00000000      23.30936821
P        0.00000000       2.06096159      24.76491197
In       2.06096159       2.06096159      26.22007688
P        2.06096159       0.00000000      33.52057463
In       0.00000000       0.00000000      29.13486154
P        0.00000000       2.06096159      30.59198362
In       2.06096159       2.06096159      32.04660821
24
Lattice="4.121923178640091 0.0 0.0 0.0 4.121923178640091 0.0 0.0 0.360668278131008 34.97567797375701" Properties=species:S:1:pos:R:3 energy=-83.46063106136712 pbc="T T T"
P        2.06096159       0.00000000       4.38352889
In       0.00000000       0.00000000       0.00266226
P        0.00000000       2.06096159       1.46622833
In       2.06096159       2.06096159       2.92297925
P        2.06096159       0.00000000      10.20888757
In       0.00000000       0.00000000       5.84273793
P        0.00000000       2.06096159       7.29821770
In       2.06096159       2.06096159       8.75356171
P        2.06096159       0.00000000      16.03110442
In       0.00000000       0.00000000      11.66441175
P        0.00000000       2.06096159      13.11988078
In       2.06096159       2.06096159      14.57545379
P        2.06096159       0.00000000      21.85341781
In       0.00000000       0.00000000      17.48672665
P        0.00000000       2.06096159      18.94227593
In       2.06096159       2.06096159      20.39776565
P        2.06096159       0.00000000      27.67731086
In       0.00000000       0.00000000      23.30893727
P        0.00000000       2.06096159      24.76448683
In       2.06096159       2.06096159      26.21962373
P        2.06096159       0.00000000      33.52376830
In       0.00000000       0.00000000      29.13575584
P        0.00000000       2.06096159      30.59301910
In       2.06096159       2.06096159      32.04755436
24
Lattice="4.121923178640091 0.0 0.0 0.0 4.121923178640091 0.0 0.0 0.4121923178640091 34.97567797375701" Properties=species:S:1:pos:R:3 energy=-83.44125727413243 pbc="T T T"
P        2.06096159       0.00000000       4.38298286
In       0.00000000       0.00000000      -0.00021207
P        0.00000000       2.06096159       1.46374354
In       2.06096159       2.06096159       2.92092016
P        2.06096159       0.00000000      10.20912699
In       0.00000000       0.00000000       5.84314124
P        0.00000000       2.06096159       7.29873299
In       2.06096159       2.06096159       8.75396533
P        2.06096159       0.00000000      16.03112264
In       0.00000000       0.00000000      11.66459952
P        0.00000000       2.06096159      13.11998951
In       2.06096159       2.06096159      14.57552206
P        2.06096159       0.00000000      21.85319973
In       0.00000000       0.00000000      17.48664574
P        0.00000000       2.06096159      18.94210318
In       2.06096159       2.06096159      20.39753631
P        2.06096159       0.00000000      27.67740499
In       0.00000000       0.00000000      23.30863867
P        0.00000000       2.06096159      24.76417126
In       2.06096159       2.06096159      26.21926351
P        2.06096159       0.00000000      33.52758097
In       0.00000000       0.00000000      29.13687742
P        0.00000000       2.06096159      30.59433894
In       2.06096159       2.06096159      32.04890122
24
Lattice="4.121923178640091 0.0 0.0 0.0 4.121923178640091 0.0 0.0 0.46371635759701024 34.97567797375701" Properties=species:S:1:pos:R:3 energy=-83.419633656217 pbc="T T T"
P        2.06096159       0.00000000       4.38190953
In       0.00000000       0.00000000      -0.00393404
P        0.00000000       2.06096159       1.46029540
In       2.06096159       2.06096159       2.91801215
P        2.06096159       0.00000000      10.20970398
In       0.00000000       0.00000000       5.84327091
P        0.00000000       2.06096159       7.29922462
In       2.06096159       2.06096159       8.75459682
P        2.06096159       0.00000000      16.03110006
In       0.00000000       0.00000000      11.66505861
P        0.00000000       2.06096159      13.12023996
In       2.06096159       2.06096159      14.57564281
P        2.06096159       0.00000000      21.85270765
In       0.00000000       0.00000000      17.48651820
P        0.00000000       2.06096159      18.94188121
In       2.06096159       2.06096159      20.39712486
P        2.06096159       0.00000000      27.67797543
In       0.00000000       0.00000000      23.30797383
P        0.00000000       2.06096159      24.76356320
In       2.06096159       2.06096159      26.21897602
P        2.06096159       0.00000000      33.53193132
In       0.00000000       0.00000000      29.13878732
P        0.00000000       2.06096159      30.59656814
In       2.06096159       2.06096159      32.05116871
24
Lattice="4.121923178640091 0.0 0.0 0.0 4.121923178640091 0.0 0.0 0.5152403973300114 34.97567797375701" Properties=species:S:1:pos:R:3 energy=-83.39561925635891 pbc="T T T"
P        2.06096159       0.00000000       4.38085938
In       0.00000000       0.00000000      -0.00802230
P        0.00000000       2.06096159       1.45663628
In       2.06096159       2.06096159       2.91496161
P        2.06096159       0.00000000      10.20984648
In       0.00000000       0.00000000       5.84347217
P        0.00000000       2.06096159       7.29973535
In       2.06096159       2.06096159       8.75497973
P        2.06096159       0.00000000      16.03107978
In       0.00000000       0.00000000      11.66528111
P        0.00000000       2.06096159      13.12035344
In       2.06096159       2.06096159      14.57564445
P        2.06096159       0.00000000      21.85251092
In       0.00000000       0.00000000      17.48641782
P        0.00000000       2.06096159      18.94173962
In       2.06096159       2.06096159      20.39695429
P        2.06096159       0.00000000      27.67829231
In       0.00000000       0.00000000      23.30777111
P        0.00000000       2.06096159      24.76338679
In       2.06096159       2.06096159      26.21867792
P        2.06096159       0.00000000      33.53690623
In       0.00000000       0.00000000      29.14050772
P        0.00000000       2.06096159      30.59880502
In       2.06096159       2.06096159      32.05349946
24
Lattice="4.121923178640091 0.0 0.0 0.0 4.121923178640091 0.0 0.0 0.5667644370630084 34.97567797375701" Properties=species:S:1:pos:R:3 energy=-83.36908405800372 pbc="T T T"
P        2.06096159      -0.00000000       4.37917982
In       0.00000000       0.00000000      -0.01309488
P        0.00000000       2.06096159       1.45202432
In       2.06096159       2.06096159       2.91101970
P        2.06096159      -0.00000000      10.20977378
In       0.00000000      -0.00000000       5.84314410
P        0.00000000       2.06096159       7.29970856
In       2.06096159       2.06096159       8.75495950
P        2.06096159      -0.00000000      16.03104733
In       0.00000000      -0.00000000      11.66520575
P        0.00000000       2.06096159      13.12029462
In       2.06096159       2.06096159      14.57563551
P        2.06096159      -0.00000000      21.85254684
In       0.00000000      -0.00000000      17.48640310
P        0.00000000       2.06096159      18.94169401
In       2.06096159       2.06096159      20.39686594
P        2.06096159      -0.00000000      27.67941788
In       0.00000000      -0.00000000      23.30774420
P        0.00000000       2.06096159      24.76353021
In       2.06096159       2.06096159      26.21899809
P        2.06096159      -0.00000000      33.54240544
In       0.00000000      -0.00000000      29.14312930
P        0.00000000       2.06096159      30.60186005
In       2.06096159       2.06096159      32.05680355
24
Lattice="4.121923178640091 0.0 0.0 0.0 4.121923178640091 0.0 0.0 0.6182884767960137 34.97567797375701" Properties=species:S:1:pos:R:3 energy=-83.33953112819655 pbc="T T T"
P        2.06096159       0.00000000       4.37645603
In       0.00000000       0.00000000      -0.02000881
P        0.00000000       2.06096159       1.44593550
In       2.06096159       2.06096159       2.90559755
P        2.06096159       0.00000000      10.20950442
In       0.00000000       0.00000000       5.84203668
P        0.00000000       2.06096159       7.29921079
In       2.06096159       2.06096159       8.75466993
P        2.06096159       0.00000000      16.03089225
In       0.00000000       0.00000000      11.66495060
P        0.00000000       2.06096159      13.11993381
In       2.06096159       2.06096159      14.57533184
P        2.06096159       0.00000000      21.85290976
In       0.00000000       0.00000000      17.48649512
P        0.00000000       2.06096159      18.94198804
In       2.06096159       2.06096159      20.39718751
P        2.06096159       0.00000000      27.68146151
In       0.00000000       0.00000000      23.30797055
P        0.00000000       2.06096159      24.76396576
In       2.06096159       2.06096159      26.21983074
P        2.06096159       0.00000000      33.54874104
In       0.00000000       0.00000000      29.14712120
P        0.00000000       2.06096159      30.60645216
In       2.06096159       2.06096159      32.06166270
24
Lattice="4.121923178640091 0.0 0.0 0.0 4.121923178640091 0.0 0.0 0.6698125165290113 34.97567797375701" Properties=species:S:1:pos:R:3 energy=-83.30687837998798 pbc="T T T"
P        2.06096159      -0.00000000       4.37365237
In       0.00000000       0.00000000      -0.02750812
P        0.00000000       2.06096159       1.43950709
In       2.06096159       2.06096159       2.89986040
P        2.06096159      -0.00000000      10.20916491
In       0.00000000      -0.00000000       5.84089763
P        0.00000000       2.06096159       7.29867403
In       2.06096159       2.06096159       8.75433791
P        2.06096159      -0.00000000      16.03085061
In       0.00000000      -0.00000000      11.66476260
P        0.00000000       2.06096159      13.11973106
In       2.06096159       2.06096159      14.57518964
P        2.06096159      -0.00000000      21.85317638
In       0.00000000      -0.00000000      17.48653626
P        0.00000000       2.06096159      18.94210806
In       2.06096159       2.06096159      20.39733665
P        2.06096159      -0.00000000      27.68364158
In       0.00000000      -0.00000000      23.30825835
P        0.00000000       2.06096159      24.76456544
In       2.06096159       2.06096159      26.22081135
P        2.06096159      -0.00000000      33.55537757
In       0.00000000      -0.00000000      29.15124253
P        0.00000000       2.06096159      30.61129756
In       2.06096159       2.06096159      32.06682481
24
Lattice="4.121923178640091 0.0 0.0 0.0 4.121923178640091 0.0 0.0 0.721336556262016 34.97567797375701" Properties=species:S:1:pos:R:3 energy=-83.2712555644615 pbc="T T T"
P        2.06096159       0.00000000       4.37054905
In       0.00000000       0.00000000      -0.03582680
P        0.00000000       2.06096159       1.43241408
In       2.06096159       2.06096159       2.89354654
P        2.06096159       0.00000000      10.20862184
In       0.00000000       0.00000000       5.83953608
P        0.00000000       2.06096159       7.29794519
In       2.06096159       2.06096159       8.75384623
P        2.06096159       0.00000000      16.03083755
In       0.00000000       0.00000000      11.66446106
P        0.00000000       2.06096159      13.11944507
In       2.06096159       2.06096159      14.57499823
P        2.06096159       0.00000000      21.85351139
In       0.00000000       0.00000000      17.48658842
P        0.00000000       2.06096159      18.94226326
In       2.06096159       2.06096159      20.39755518
P        2.06096159       0.00000000      27.68621953
In       0.00000000       0.00000000      23.30869252
P        0.00000000       2.06096159      24.76538170
In       2.06096159       2.06096159      26.22208958
P        2.06096159       0.00000000      33.56257283
In       0.00000000       0.00000000      29.15582780
P        0.00000000       2.06096159      30.61672002
In       2.06096159       2.06096159      32.07250032
24
Lattice="4.121923178640091 0.0 0.0 0.0 4.121923178640091 0.0 0.0 0.772860595995017 34.97567797375701" Properties=species:S:1:pos:R:3 energy=-83.23256561874263 pbc="T T T"
P        2.06096159       0.00000000       4.36767608
In       0.00000000       0.00000000      -0.04399029
P        0.00000000       2.06096159       1.42548270
In       2.06096159       2.06096159       2.88735743
P        2.06096159       0.00000000      10.20838675
In       0.00000000       0.00000000       5.83851477
P        0.00000000       2.06096159       7.29745403
In       2.06096159       2.06096159       8.75359803
P        2.06096159       0.00000000      16.03075216
In       0.00000000       0.00000000      11.66428085
P        0.00000000       2.06096159      13.11925039
In       2.06096159       2.06096159      14.57487785
P        2.06096159       0.00000000      21.85383180
In       0.00000000       0.00000000      17.48664661
P        0.00000000       2.06096159      18.94241996
In       2.06096159       2.06096159      20.39771143
P        2.06096159       0.00000000      27.68845245
In       0.00000000       0.00000000      23.30893990
P        0.00000000       2.06096159      24.76591895
In       2.06096159       2.06096159      26.22297545
P        2.06096159       0.00000000      33.56961018
In       0.00000000       0.00000000      29.16014889
P        0.00000000       2.06096159      30.62196594
In       2.06096159       2.06096159      32.07803439
24
Lattice="4.121923178640091 0.0 0.0 0.0 4.121923178640091 0.0 0.0 0.8243846357280182 34.97567797375701" Properties=species:S:1:pos:R:3 energy=-83.18960886199459 pbc="T T T"
P        2.06096159       0.00000000       4.36584339
In       0.00000000       0.00000000      -0.05101670
P        0.00000000       2.06096159       1.41946061
In       2.06096159       2.06096159       2.88223092
P        2.06096159       0.00000000      10.20858172
In       0.00000000       0.00000000       5.83843977
P        0.00000000       2.06096159       7.29769272
In       2.06096159       2.06096159       8.75392574
P        2.06096159       0.00000000      16.03075566
In       0.00000000       0.00000000      11.66446712
P        0.00000000       2.06096159      13.11931127
In       2.06096159       2.06096159      14.57491088
P        2.06096159       0.00000000      21.85374537
In       0.00000000       0.00000000      17.48665017
P        0.00000000       2.06096159      18.94240005
In       2.06096159       2.06096159      20.39759162
P        2.06096159       0.00000000      27.68999380
In       0.00000000       0.00000000      23.30871389
P        0.00000000       2.06096159      24.76589624
In       2.06096159       2.06096159      26.22318974
P        2.06096159       0.00000000      33.57520617
In       0.00000000       0.00000000      29.16360741
P        0.00000000       2.06096159      30.62625005
In       2.06096159       2.06096159      32.08244909
24
Lattice="4.121923178640091 0.0 0.0 0.0 4.121923178640091 0.0 0.0 0.8759086754610157 34.97567797375701" Properties=species:S:1:pos:R:3 energy=-83.14156746775289 pbc="T T T"
P        2.06096159      -0.00000000       4.36414359
In       0.00000000       0.00000000      -0.05787782
P        0.00000000       2.06096159       1.41345673
In       2.06096159       2.06096159       2.87710416
P        2.06096159      -0.00000000      10.20880309
In       0.00000000      -0.00000000       5.83850201
P        0.00000000       2.06096159       7.29801028
In       2.06096159       2.06096159       8.75430969
P        2.06096159      -0.00000000      16.03080747
In       0.00000000      -0.00000000      11.66469736
P        0.00000000       2.06096159      13.11941623
In       2.06096159       2.06096159      14.57498539
P        2.06096159      -0.00000000      21.85357980
In       0.00000000      -0.00000000      17.48667336
P        0.00000000       2.06096159      18.94236856
In       2.06096159       2.06096159      20.39743065
P        2.06096159      -0.00000000      27.69149770
In       0.00000000      -0.00000000      23.30839544
P        0.00000000       2.06096159      24.76576856
In       2.06096159       2.06096159      26.22329332
P        2.06096159      -0.00000000      33.58049773
In       0.00000000      -0.00000000      29.16703913
P        0.00000000       2.06096159      30.63057837
In       2.06096159       2.06096159      32.08681589
24
Lattice="4.121923178640091 0.0 0.0 0.0 4.121923178640091 0.0 0.0 0.9274327151940205 34.97567797375701" Properties=species:S:1:pos:R:3 energy=-83.08854484181629 pbc="T T T"
P        2.06096159       0.00000000       4.36086721
In       0.00000000       0.00000000      -0.06692886
P        0.00000000       2.06096159       1.40555698
In       2.06096159       2.06096159       2.86979220
P        2.06096159       0.00000000      10.20833418
In       0.00000000       0.00000000       5.83721322
P        0.00000000       2.06096159       7.29725444
In       2.06096159       2.06096159       8.75385595
P        2.06096159       0.00000000      16.03091671
In       0.00000000       0.00000000      11.66449066
P        0.00000000       2.06096159      13.11922843
In       2.06096159       2.06096159      14.57491227
P        2.06096159       0.00000000      21.85410607
In       0.00000000       0.00000000      17.48689128
P        0.00000000       2.06096159      18.94268823
In       2.06096159       2.06096159      20.39781203
P        2.06096159       0.00000000      27.69452502
In       0.00000000       0.00000000      23.30895380
P        0.00000000       2.06096159      24.76674152
In       2.06096159       2.06096159      26.22472288
P        2.06096159       0.00000000      33.58668341
In       0.00000000       0.00000000      29.17228409
P        0.00000000       2.06096159      30.63671058
In       2.06096159       2.06096159      32.09268440
24
Lattice="4.121923178640091 0.0 0.0 0.0 4.121923178640091 0.0 0.0 0.9789567549270184 34.97567797375701" Properties=species:S:1:pos:R:3 energy=-83.03170584229144 pbc="T T T"
P        2.06096159      -0.00000000       4.35675470
In       0.00000000       0.00000000      -0.07832611
P        0.00000000       2.06096159       1.39630958
In       2.06096159       2.06096159       2.86104258
P        2.06096159      -0.00000000      10.20759169
In       0.00000000      -0.00000000       5.83529204
P        0.00000000       2.06096159       7.29599202
In       2.06096159       2.06096159       8.75304108
P        2.06096159      -0.00000000      16.03104489
In       0.00000000      -0.00000000      11.66405543
P        0.00000000       2.06096159      13.11890032
In       2.06096159       2.06096159      14.57480449
P        2.06096159      -0.00000000      21.85503158
In       0.00000000      -0.00000000      17.48723367
P        0.00000000       2.06096159      18.94322616
In       2.06096159       2.06096159      20.39847361
P        2.06096159      -0.00000000      27.69837708
In       0.00000000      -0.00000000      23.30996699
P        0.00000000       2.06096159      24.76829708
In       2.06096159       2.06096159      26.22685473
P        2.06096159      -0.00000000      33.59431976
In       0.00000000      -0.00000000      29.17847374
P        0.00000000       2.06096159      30.64397396
In       2.06096159       2.06096159      32.09956561
24
Lattice="4.121923178640091 0.0 0.0 0.0 4.121923178640091 0.0 0.0 1.0304807946600227 34.97567797375701" Properties=species:S:1:pos:R:3 energy=-82.9722810978835 pbc="T T T"
P        2.06096159       0.00000000       4.35280024
In       0.00000000       0.00000000      -0.09035465
P        0.00000000       2.06096159       1.38706617
In       2.06096159       2.06096159       2.85219755
P        2.06096159       0.00000000      10.20675995
In       0.00000000       0.00000000       5.83345359
P        0.00000000       2.06096159       7.29471387