24
Lattice="5.8292796622928345 0.0 0.0 0.0 4.121923178640091 0.0 0.0 0.0 24.731539071840544" Properties=species:S:1:pos:R:3 energy=-83.53392680904786 pbc="T T T"
P        4.37195975       2.06096159       0.00000000
In       0.00000000       0.00000000       0.00000000
P        1.45731992       0.00000000       2.06096159
In       2.91463983       2.06096159       2.06096159
P        4.37195975       2.06096159       4.12192318
In       0.00000000       0.00000000       4.12192318
P        1.45731992       0.00000000       6.18288477
In       2.91463983       2.06096159       6.18288477
P        4.37195975       2.06096159       8.24384636
In       0.00000000       0.00000000       8.24384636
P        1.45731992       0.00000000      10.30480795
In       2.91463983       2.06096159      10.30480795
P        4.37195975       2.06096159      12.36576954
In       0.00000000       0.00000000      12.36576954
P        1.45731992       0.00000000      14.42673113
In       2.91463983       2.06096159      14.42673113
P        4.37195975       2.06096159      16.48769271
In       0.00000000       0.00000000      16.48769271
P        1.45731992       0.00000000      18.54865430
In       2.91463983       2.06096159      18.54865430
P        4.37195975       2.06096159      20.60961589
In       0.00000000       0.00000000      20.60961589
P        1.45731992       0.00000000      22.67057748
In       2.91463983       2.06096159      22.67057748
24
Lattice="5.8292796622928345 0.0 0.0 0.0 4.121923178640091 0.0 0.0 0.05152403973300114 24.731539071840544" Properties=species:S:1:pos:R:3 energy=-83.53225805612414 pbc="T T T"
P        4.37195975       2.06096159      -0.00031936
In       0.00000000       0.00000000       0.00033342
P        1.45731992       0.00000000       2.06097079
In       2.91463983       2.06096159       2.06078421
P        4.37195975       2.06096159       4.12190222
In       0.00000000       0.00000000       4.12200357
P        1.45731992       0.00000000       6.18290776
In       2.91463983       2.06096159       6.18289254
P        4.37195975       2.06096159       8.24384269
In       0.00000000       0.00000000       8.24385199
P        1.45731992       0.00000000      10.30480720
In       2.91463983       2.06096159      10.30480299
P        4.37195975       2.06096159      12.36577028
In       0.00000000       0.00000000      12.36577449
P        1.45731992       0.00000000      14.42673479
In       2.91463983       2.06096159      14.42672549
P        4.37195975       2.06096159      16.48766973
In       0.00000000       0.00000000      16.48768494
P        1.45731992       0.00000000      18.54867526
In       2.91463983       2.06096159      18.54857391
P        4.37195975       2.06096159      20.60960670
In       0.00000000       0.00000000      20.60979327
P        1.45731992       0.00000000      22.67089684
In       2.91463983       2.06096159      22.67024406
24
Lattice="5.8292796622928345 0.0 0.0 0.0 4.121923178640091 0.0 0.0 0.10304807946600228 24.731539071840544" Properties=species:S:1:pos:R:3 energy=-83.52745866531781 pbc="T T T"
P        4.37195975       2.06096159      -0.00179003
In       0.00000000       0.00000000       0.00182159
P        1.45731992       0.00000000       2.06149019
In       2.91463983       2.06096159       2.05963453
P        4.37195975       2.06096159       4.12132932
In       0.00000000       0.00000000       4.12258541
P        1.45731992       0.00000000       6.18318353
In       2.91463983       2.06096159       6.18259504
P        4.37195975       2.06096159       8.24374069
In       0.00000000       0.00000000       8.24400974
P        1.45731992       0.00000000      10.30485720
In       2.91463983       2.06096159      10.30475604
P        4.37195975       2.06096159      12.36572028
In       0.00000000       0.00000000      12.36582145
P        1.45731992       0.00000000      14.42683680
In       2.91463983       2.06096159      14.42656774
P        4.37195975       2.06096159      16.48739395
In       0.00000000       0.00000000      16.48798244
P        1.45731992       0.00000000      18.54924816
In       2.91463983       2.06096159      18.54799207
P        4.37195975       2.06096159      20.60908729
In       0.00000000       0.00000000      20.61094295
P        1.45731992       0.00000000      22.67236752
In       2.91463983       2.06096159      22.66875590
24
Lattice="5.8292796622928345 0.0 0.0 0.0 4.121923178640091 0.0 0.0 0.15457211919900343 24.731539071840544" Properties=species:S:1:pos:R:3 energy=-83.51998710417388 pbc="T T T"
P        4.37195975       2.06096159      -0.00444935
In       0.00000000       0.00000000       0.00443667
P        1.45731992       0.00000000       2.06221962
In       2.91463983       2.06096159       2.05744477
P        4.37195975       2.06096159       4.12002073
In       0.00000000       0.00000000       4.12350052
P        1.45731992       0.00000000       6.18360321
In       2.91463983       2.06096159       6.18173479
P        4.37195975       2.06096159       8.24324333
In       0.00000000       0.00000000       8.24433486
P        1.45731992       0.00000000      10.30505892
In       2.91463983       2.06096159      10.30442693
P        4.37195975       2.06096159      12.36551857
In       0.00000000       0.00000000      12.36615055
P        1.45731992       0.00000000      14.42733416
In       2.91463983       2.06096159      14.42624262
P        4.37195975       2.06096159      16.48697427
In       0.00000000       0.00000000      16.48884269
P        1.45731992       0.00000000      18.55055675
In       2.91463983       2.06096159      18.54707697
P        4.37195975       2.06096159      20.60835786
In       0.00000000       0.00000000      20.61313271
P        1.45731992       0.00000000      22.67502683
In       2.91463983       2.06096159      22.66614081
24
Lattice="5.8292796622928345 0.0 0.0 0.0 4.121923178640091 0.0 0.0 0.20609615893200456 24.731539071840544" Properties=species:S:1:pos:R:3 energy=-83.51056015924567 pbc="T T T"
P        4.37195975       2.06096159      -0.00829140
In       0.00000000       0.00000000       0.00733827
P        1.45731992       0.00000000       2.06275181
In       2.91463983       2.06096159       2.05434642
P        4.37195975       2.06096159       4.11811273
In       0.00000000       0.00000000       4.12434404
P        1.45731992       0.00000000       6.18399826
In       2.91463983       2.06096159       6.18037024
P        4.37195975       2.06096159       8.24235043
In       0.00000000       0.00000000       8.24469444
P        1.45731992       0.00000000      10.30544897
In       2.91463983       2.06096159      10.30377298
P        4.37195975       2.06096159      12.36512851
In       0.00000000       0.00000000      12.36680451
P        1.45731992       0.00000000      14.42822705
In       2.91463983       2.06096159      14.42588304
P        4.37195975       2.06096159      16.48657922
In       0.00000000       0.00000000      16.49020724
P        1.45731992       0.00000000      18.55246475
In       2.91463983       2.06096159      18.54623345
P        4.37195975       2.06096159      20.60782567
In       0.00000000       0.00000000      20.61623106
P        1.45731992       0.00000000      22.67886888
In       2.91463983       2.06096159      22.66323921
24
Lattice="5.8292796622928345 0.0 0.0 0.0 4.121923178640091 0.0 0.0 0.2576201986650057 24.731539071840544" Properties=species:S:1:pos:R:3 energy=-83.49966982096635 pbc="T T T"
P        4.37195975       2.06096159      -0.01363618
In       0.00000000       0.00000000       0.00985910
P        1.45731992       0.00000000       2.06278066
In       2.91463983       2.06096159       2.05023052
P        4.37195975       2.06096159       4.11557151
In       0.00000000       0.00000000       4.12492402
P        1.45731992       0.00000000       6.18410535
In       2.91463983       2.06096159       6.17867265
P        4.37195975       2.06096159       8.24121918
In       0.00000000       0.00000000       8.24500214
P        1.45731992       0.00000000      10.30583620
In       2.91463983       2.06096159      10.30297398
P        4.37195975       2.06096159      12.36474128
In       0.00000000       0.00000000      12.36760350
P        1.45731992       0.00000000      14.42935830
In       2.91463983       2.06096159      14.42557534
P        4.37195975       2.06096159      16.48647213
In       0.00000000       0.00000000      16.49190483
P        1.45731992       0.00000000      18.55500597
In       2.91463983       2.06096159      18.54565346
P        4.37195975       2.06096159      20.60779682
In       0.00000000       0.00000000      20.62034696
P        1.45731992       0.00000000      22.68421366
In       2.91463983       2.06096159      22.66071838
24
Lattice="5.8292796622928345 0.0 0.0 0.0 4.121923178640091 0.0 0.0 0.30914423839800687 24.731539071840544" Properties=species:S:1:pos:R:3 energy=-83.48765651023206 pbc="T T T"
P        4.37195975       2.06096159      -0.01973181
In       0.00000000       0.00000000       0.01168143
P        1.45731992       0.00000000       2.06232138
In       2.91463983       2.06096159       2.04548139
P        4.37195975       2.06096159       4.11263069
In       0.00000000       0.00000000       4.12526035
P        1.45731992       0.00000000       6.18402846
In       2.91463983       2.06096159       6.17674857
P        4.37195975       2.06096159       8.24004556
In       0.00000000       0.00000000       8.24512552
P        1.45731992       0.00000000      10.30608962
In       2.91463983       2.06096159      10.30226181
P        4.37195975       2.06096159      12.36448786
In       0.00000000       0.00000000      12.36831567
P        1.45731992       0.00000000      14.43053192
In       2.91463983       2.06096159      14.42545197
P        4.37195975       2.06096159      16.48654902
In       0.00000000       0.00000000      16.49382891
P        1.45731992       0.00000000      18.55794679
In       2.91463983       2.06096159      18.54531713
P        4.37195975       2.06096159      20.60825610
In       0.00000000       0.00000000      20.62509609
P        1.45731992       0.00000000      22.69030929
In       2.91463983       2.06096159      22.65889605
24
Lattice="5.8292796622928345 0.0 0.0 0.0 4.121923178640091 0.0 0.0 0.360668278131008 24.731539071840544" Properties=species:S:1:pos:R:3 energy=-83.47460055725935 pbc="T T T"
P        4.37195975       2.06096159      -0.02669443
In       0.00000000       0.00000000       0.01328482
P        1.45731992       0.00000000       2.06147604
In       2.91463983       2.06096159       2.04003680
P        4.37195975       2.06096159       4.10929697
In       0.00000000       0.00000000       4.12547970
P        1.45731992       0.00000000       6.18393406
In       2.91463983       2.06096159       6.17456385
P        4.37195975       2.06096159       8.23869062
In       0.00000000       0.00000000       8.24532797
P        1.45731992       0.00000000      10.30652316
In       2.91463983       2.06096159      10.30135001
P        4.37195975       2.06096159      12.36405432
In       0.00000000       0.00000000      12.36922748
P        1.45731992       0.00000000      14.43188687
In       2.91463983       2.06096159      14.42524951
P        4.37195975       2.06096159      16.48664342
In       0.00000000       0.00000000      16.49601363
P        1.45731992       0.00000000      18.56128052
In       2.91463983       2.06096159      18.54509778
P        4.37195975       2.06096159      20.60910144
In       0.00000000       0.00000000      20.63054068
P        1.45731992       0.00000000      22.69727191
In       2.91463983       2.06096159      22.65729266
24
Lattice="5.8292796622928345 0.0 0.0 0.0 4.121923178640091 0.0 0.0 0.4121923178640091 24.731539071840544" Properties=species:S:1:pos:R:3 energy=-83.46046062811166 pbc="T T T"
P        4.37195975       2.06096159      -0.03450433
In       0.00000000       0.00000000       0.01502991
P        1.45731992       0.00000000       2.06064535
In       2.91463983       2.06096159       2.03396833
P        4.37195975       2.06096159       4.10560663
In       0.00000000       0.00000000       4.12588865
P        1.45731992       0.00000000       6.18384577
In       2.91463983       2.06096159       6.17217181
P        4.37195975       2.06096159       8.23721177
In       0.00000000       0.00000000       8.24553572
P        1.45731992       0.00000000      10.30689843
In       2.91463983       2.06096159      10.30041959
P        4.37195975       2.06096159      12.36367905
In       0.00000000       0.00000000      12.37015790
P        1.45731992       0.00000000      14.43336572
In       2.91463983       2.06096159      14.42504177
P        4.37195975       2.06096159      16.48673171
In       0.00000000       0.00000000      16.49840567
P        1.45731992       0.00000000      18.56497085
In       2.91463983       2.06096159      18.54468884
P        4.37195975       2.06096159      20.60993213
In       0.00000000       0.00000000      20.63660916
P        1.45731992       0.00000000      22.70508181
In       2.91463983       2.06096159      22.65554757
24
Lattice="5.8292796622928345 0.0 0.0 0.0 4.121923178640091 0.0 0.0 0.46371635759701024 24.731539071840544" Properties=species:S:1:pos:R:3 energy=-83.44519270761148 pbc="T T T"
P        4.37195975       2.06096159      -0.04311500
In       0.00000000       0.00000000       0.01655513
P        1.45731992       0.00000000       2.05941008
In       2.91463983       2.06096159       2.02711399
P        4.37195975       2.06096159       4.10144628
In       0.00000000       0.00000000       4.12613551
P        1.45731992       0.00000000       6.18365166
In       2.91463983       2.06096159       6.16952623
P        4.37195975       2.06096159       8.23559162
In       0.00000000       0.00000000       8.24583442
P        1.45731992       0.00000000      10.30734382
In       2.91463983       2.06096159      10.29939377
P        4.37195975       2.06096159      12.36323367
In       0.00000000       0.00000000      12.37118372
P        1.45731992       0.00000000      14.43498586
In       2.91463983       2.06096159      14.42474307
P        4.37195975       2.06096159      16.48692582
In       0.00000000       0.00000000      16.50105125
P        1.45731992       0.00000000      18.56913120
In       2.91463983       2.06096159      18.54444197
P        4.37195975       2.06096159      20.61116741
In       0.00000000       0.00000000      20.64346349
P        1.45731992       0.00000000      22.71369248
In       2.91463983       2.06096159      22.65402235
24
Lattice="5.8292796622928345 0.0 0.0 0.0 4.121923178640091 0.0 0.0 0.5152403973300114 24.731539071840544" Properties=species:S:1:pos:R:3 energy=-83.42875213865312 pbc="T T T"
P        4.37195975       2.06096159      -0.05250723
In       0.00000000       0.00000000       0.01820307
P        1.45731992       0.00000000       2.05821943
In       2.91463983       2.06096159       2.01972464
P        4.37195975       2.06096159       4.09705444
In       0.00000000       0.00000000       4.12663542
P        1.45731992       0.00000000       6.18354498
In       2.91463983       2.06096159       6.16671731
P        4.37195975       2.06096159       8.23385168
In       0.00000000       0.00000000       8.24613638
P        1.45731992       0.00000000      10.30781129
In       2.91463983       2.06096159      10.29828708
P        4.37195975       2.06096159      12.36276619
In       0.00000000       0.00000000      12.37229041
P        1.45731992       0.00000000      14.43672580
In       2.91463983       2.06096159      14.42444110
P        4.37195975       2.06096159      16.48703250
In       0.00000000       0.00000000      16.50386017
P        1.45731992       0.00000000      18.57352305
In       2.91463983       2.06096159      18.54394206
P        4.37195975       2.06096159      20.61235805
In       0.00000000       0.00000000      20.65085285
P        1.45731992       0.00000000      22.72308472
In       2.91463983       2.06096159      22.65237441
24
Lattice="5.8292796622928345 0.0 0.0 0.0 4.121923178640091 0.0 0.0 0.5667644370630103 24.731539071840544" Properties=species:S:1:pos:R:3 energy=-83.41100817744834 pbc="T T T"
P        4.37195975       2.06096159      -0.06242796
In       0.00000000      -0.00000000       0.01905042
P        1.45731992      -0.00000000       2.05622725
In       2.91463983       2.06096159       2.01149981
P        4.37195975       2.06096159       4.09200286
In       0.00000000      -0.00000000       4.12650255
P        1.45731992      -0.00000000       6.18293712
In       2.91463983       2.06096159       6.16351140
P        4.37195975       2.06096159       8.23203455
In       0.00000000      -0.00000000       8.24608218
P        1.45731992      -0.00000000      10.30804132
In       2.91463983       2.06096159      10.29733286
P        4.37195975       2.06096159      12.36253616
In       0.00000000      -0.00000000      12.37324462
P        1.45731992      -0.00000000      14.43854294
In       2.91463983       2.06096159      14.42449530
P        4.37195975       2.06096159      16.48764037
In       0.00000000      -0.00000000      16.50706609
P        1.45731992      -0.00000000      18.57857462
In       2.91463983       2.06096159      18.54407493
P        4.37195975       2.06096159      20.61435023
In       0.00000000      -0.00000000      20.65907767
P        1.45731992      -0.00000000      22.73300545
In       2.91463983       2.06096159      22.65152706
24
Lattice="5.8292796622928345 0.0 0.0 0.0 4.121923178640091 0.0 0.0 0.6182884767960137 24.731539071840544" Properties=species:S:1:pos:R:3 energy=-83.3912863605288 pbc="T T T"
P        4.37195975       2.06096159      -0.07294334
In       0.00000000       0.00000000       0.01954312
P        1.45731992       0.00000000       2.05406418
In       2.91463983       2.06096159       2.00284206
P        4.37195975       2.06096159       4.08689703
In       0.00000000       0.00000000       4.12658831
P        1.45731992       0.00000000       6.18248759
In       2.91463983       2.06096159       6.16028017
P        4.37195975       2.06096159       8.23007325
In       0.00000000       0.00000000       8.24622941
P        1.45731992       0.00000000      10.30844819
In       2.91463983       2.06096159      10.29616607
P        4.37195975       2.06096159      12.36212929
In       0.00000000       0.00000000      12.37441141
P        1.45731992       0.00000000      14.44050424
In       2.91463983       2.06096159      14.42434807
P        4.37195975       2.06096159      16.48808989
In       0.00000000       0.00000000      16.51029731
P        1.45731992       0.00000000      18.58368045
In       2.91463983       2.06096159      18.54398917
P        4.37195975       2.06096159      20.61651330
In       0.00000000       0.00000000      20.66773542
P        1.45731992       0.00000000      22.74352082
In       2.91463983       2.06096159      22.65103436
24
Lattice="5.8292796622928345 0.0 0.0 0.0 4.121923178640091 0.0 0.0 0.6698125165290123 24.731539071840544" Properties=species:S:1:pos:R:3 energy=-83.36953712085361 pbc="T T T"
P        4.37195975       2.06096159      -0.08410859
In       0.00000000      -0.00000000       0.02001500
P        1.45731992      -0.00000000       2.05174520
In       2.91463983       2.06096159       1.99347836
P        4.37195975       2.06096159       4.08142971
In       0.00000000      -0.00000000       4.12667317
P        1.45731992      -0.00000000       6.18189542
In       2.91463983       2.06096159       6.15681749
P        4.37195975       2.06096159       8.22800320
In       0.00000000      -0.00000000       8.24620590
P        1.45731992      -0.00000000      10.30873163
In       2.91463983       2.06096159      10.29502748
P        4.37195975       2.06096159      12.36184586
In       0.00000000      -0.00000000      12.37555000
P        1.45731992      -0.00000000      14.44257428
In       2.91463983       2.06096159      14.42437158
P        4.37195975       2.06096159      16.48868206
In       0.00000000      -0.00000000      16.51376000
P        1.45731992      -0.00000000      18.58914778
In       2.91463983       2.06096159      18.54390431
P        4.37195975       2.06096159      20.61883229
In       0.00000000      -0.00000000      20.67709913
P        1.45731992      -0.00000000      22.75468607
In       2.91463983       2.06096159      22.65056248
24
Lattice="5.8292796622928345 0.0 0.0 0.0 4.121923178640091 0.0 0.0 0.721336556262016 24.731539071840544" Properties=species:S:1:pos:R:3 energy=-83.34596260711959 pbc="T T T"
P        4.37195975       2.06096159      -0.09602429
In       0.00000000       0.00000000       0.02047788
P        1.45731992       0.00000000       2.04934680
In       2.91463983       2.06096159       1.98331086
P        4.37195975       2.06096159       4.07564978
In       0.00000000       0.00000000       4.12696738
P        1.45731992       0.00000000       6.18148608
In       2.91463983       2.06096159       6.15322542
P        4.37195975       2.06096159       8.22583882
In       0.00000000       0.00000000       8.24645799
P        1.45731992       0.00000000      10.30920244
In       2.91463983       2.06096159      10.29374502
P        4.37195975       2.06096159      12.36137505
In       0.00000000       0.00000000      12.37683247
P        1.45731992       0.00000000      14.44473866
In       2.91463983       2.06096159      14.42411949
P        4.37195975       2.06096159      16.48909140
In       0.00000000       0.00000000      16.51735206
P        1.45731992       0.00000000      18.59492770
In       2.91463983       2.06096159      18.54361011
P        4.37195975       2.06096159      20.62123068
In       0.00000000       0.00000000      20.68726662
P        1.45731992       0.00000000      22.76660177
In       2.91463983       2.06096159      22.65009960
24
Lattice="5.8292796622928345 0.0 0.0 0.0 4.121923178640091 0.0 0.0 0.772860595995017 24.731539071840544" Properties=species:S:1:pos:R:3 energy=-83.32029201401258 pbc="T T T"
P        4.37195975       2.06096159      -0.10810039
In       0.00000000       0.00000000       0.02171837
P        1.45731992       0.00000000       2.04738721
In       2.91463983       2.06096159       1.97266186
P        4.37195975       2.06096159       4.06985905
In       0.00000000       0.00000000       4.12786070
P        1.45731992       0.00000000       6.18143416
In       2.91463983       2.06096159       6.14970677
P        4.37195975       2.06096159       8.22370737
In       0.00000000       0.00000000       8.24698638
P        1.45731992       0.00000000      10.30980060
In       2.91463983       2.06096159      10.29242675
P        4.37195975       2.06096159      12.36077688
In       0.00000000       0.00000000      12.37815073
P        1.45731992       0.00000000      14.44687012
In       2.91463983       2.06096159      14.42359110
P        4.37195975       2.06096159      16.48914332
In       0.00000000       0.00000000      16.52087071
P        1.45731992       0.00000000      18.60071844
In       2.91463983       2.06096159      18.54271679
P        4.37195975       2.06096159      20.62319027
In       0.00000000       0.00000000      20.69791562
P        1.45731992       0.00000000      22.77867787
In       2.91463983       2.06096159      22.64885911
24
Lattice="5.8292796622928345 0.0 0.0 0.0 4.121923178640091 0.0 0.0 0.8243846357280182 24.731539071840544" Properties=species:S:1:pos:R:3 energy=-83.29120299875544 pbc="T T T"
P        4.37195975       2.06096159      -0.12018200
In       0.00000000       0.00000000       0.02397273
P        1.45731992       0.00000000       2.04606892
In       2.91463983       2.06096159       1.96154458
P        4.37195975       2.06096159       4.06415499
In       0.00000000       0.00000000       4.12952913
P        1.45731992       0.00000000       6.18186304
In       2.91463983       2.06096159       6.14635620
P        4.37195975       2.06096159       8.22165938
In       0.00000000       0.00000000       8.24787568
P        1.45731992       0.00000000      10.31055973
In       2.91463983       2.06096159      10.29108349
P        4.37195975       2.06096159      12.36001775
In       0.00000000       0.00000000      12.37949399
P        1.45731992       0.00000000      14.44891810
In       2.91463983       2.06096159      14.42270180
P        4.37195975       2.06096159      16.48871444
In       0.00000000       0.00000000      16.52422128
P        1.45731992       0.00000000      18.60642250
In       2.91463983       2.06096159      18.54104835
P        4.37195975       2.06096159      20.62450856
In       0.00000000       0.00000000      20.70903290
P        1.45731992       0.00000000      22.79075949
In       2.91463983       2.06096159      22.64660475
24
Lattice="5.8292796622928345 0.0 0.0 0.0 4.121923178640091 0.0 0.0 0.8759086754610166 24.731539071840544" Properties=species:S:1:pos:R:3 energy=-83.25811016534004 pbc="T T T"
P        4.37195975       2.06096159      -0.13302403
In       0.00000000      -0.00000000       0.02669803
P        1.45731992      -0.00000000       2.04504784
In       2.91463983       2.06096159       1.94933932
P        4.37195975       2.06096159       4.05814889
In       0.00000000      -0.00000000       4.13167838
P        1.45731992      -0.00000000       6.18257508
In       2.91463983       2.06096159       6.14290903
P        4.37195975       2.06096159       8.21953016
In       0.00000000      -0.00000000       8.24902213
P        1.45731992      -0.00000000      10.31145372
In       2.91463983       2.06096159      10.28965125
P        4.37195975       2.06096159      12.35912376
In       0.00000000      -0.00000000      12.38092623
P        1.45731992      -0.00000000      14.45104733
In       2.91463983       2.06096159      14.42155535
P        4.37195975       2.06096159      16.48800240
In       0.00000000      -0.00000000      16.52766846
P        1.45731992      -0.00000000      18.61242859
In       2.91463983       2.06096159      18.53889911
P        4.37195975       2.06096159      20.62552964
In       0.00000000      -0.00000000      20.72123816
P        1.45731992      -0.00000000      22.80360151
In       2.91463983       2.06096159      22.64387945
24
Lattice="5.8292796622928345 0.0 0.0 0.0 4.121923178640091 0.0 0.0 0.9274327151940205 24.731539071840544" Properties=species:S:1:pos:R:3 energy=-83.22157210944937 pbc="T T T"
P        4.37195975       2.06096159      -0.14785248
In       0.00000000       0.00000000       0.02957558
P        1.45731992       0.00000000       2.04417660
In       2.91463983       2.06096159       1.93519228
P        4.37195975       2.06096159       4.05141375
In       0.00000000       0.00000000       4.13417099
P        1.45731992       0.00000000       6.18335222
In       2.91463983       2.06096159       6.13913140
P        4.37195975       2.06096159       8.21713950
In       0.00000000       0.00000000       8.25020212
P        1.45731992       0.00000000      10.31232570
In       2.91463983       2.06096159      10.28812546
P        4.37195975       2.06096159      12.35825178
In       0.00000000       0.00000000      12.38245203
P        1.45731992       0.00000000      14.45343799
In       2.91463983       2.06096159      14.42037536
P        4.37195975       2.06096159      16.48722526
In       0.00000000       0.00000000      16.53144608
P        1.45731992       0.00000000      18.61916374
In       2.91463983       2.06096159      18.53640650
P        4.37195975       2.06096159      20.62640089
In       0.00000000       0.00000000      20.73538520
P        1.45731992       0.00000000      22.81842996
In       2.91463983       2.06096159      22.64100191
24
Lattice="5.8292796622928345 0.0 0.0 0.0 4.121923178640091 0.0 0.0 0.9789567549270185 24.731539071840544" Properties=species:S:1:pos:R:3 energy=-83.1832577999638 pbc="T T T"
P        4.37195975       2.06096159      -0.16561004
In       0.00000000      -0.00000000       0.03240999
P        1.45731992      -0.00000000       2.04332184
In       2.91463983       2.06096159       1.91817123
P        4.37195975       2.06096159       4.04346765
In       0.00000000      -0.00000000       4.13707499
P        1.45731992      -0.00000000       6.18438950
In       2.91463983       2.06096159       6.13471658
P        4.37195975       2.06096159       8.21440162
In       0.00000000      -0.00000000       8.25181473
P        1.45731992      -0.00000000      10.31349585
In       2.91463983       2.06096159      10.28631820
P        4.37195975       2.06096159      12.35708163
In       0.00000000      -0.00000000      12.38425928
P        1.45731992      -0.00000000      14.45617586
In       2.91463983       2.06096159      14.41876275
P        4.37195975       2.06096159      16.48618798
In       0.00000000      -0.00000000      16.53586090
P        1.45731992      -0.00000000      18.62710983
In       2.91463983       2.06096159      18.53350249
P        4.37195975       2.06096159      20.62725564
In       0.00000000      -0.00000000      20.75240626
P        1.45731992      -0.00000000      22.83618752
In       2.91463983       2.06096159      22.63816749
24
Lattice="5.8292796622928345 0.0 0.0 0.0 4.121923178640091 0.0 0.0 1.0304807946600227 24.731539071840544" Properties=species:S:1:pos:R:3 energy=-83.1443596530766 pbc="T T T"
P        4.37195975       2.06096159      -0.18424079
In       0.00000000       0.00000000       0.03548319
P        1.45731992       0.00000000       2.04271379
In       2.91463983       2.06096159       1.90035790
P        4.37195975       2.06096159       4.03534948
In       0.00000000       0.00000000       4.14027552
P        1.45731992       0.00000000       6.18561156