4
Lattice="4.887562 -5.1e-05 0.0 2.443737 4.232778 0.0 0.0 0.0 8.026433" Properties=species:S:1:pos:R:3:mulliken_charges:R:1:forces:R:3 virial="-10.469442743685745 -0.0013836104947949899 1.0364123556516777e-06 -0.0013836104947949899 -10.467839413771554 1.0364123556516777e-06 1.0364123556516777e-06 1.0364123556516777e-06 -10.500747578888205" fermi_energy=-0.15026126520900002 core_to_fermi_energy=14.67452114681553 config_type=EOS energy=-3926.695302076 stress="0.06304934717469571 8.33241468305415e-06 -6.241509125883258e-09 8.33241468305415e-06 0.06303969156007798 -6.241509125883258e-09 -6.241509125883258e-09 -6.241509125883258e-09 0.06323787195784301" pbc="T T T"
P        2.44373945       1.41089912      -0.00010434      -0.52000000      -0.00032000      -0.00019000      -0.05109000
P        4.88755466       2.82183634       4.01311216      -0.52000000       0.00032000       0.00018000      -0.05109000
In       2.44375411       1.41090759       3.00544165       0.52000000      -0.00025000      -0.00014000       0.05109000
In       4.88754000       2.82182788       7.01865815       0.52000000       0.00025000       0.00015000       0.05109000
