4
Lattice="4.554586 -4.7e-05 0.0 2.277252 3.94441 0.0 0.0 0.0 7.479615" Properties=species:S:1:pos:R:3:mulliken_charges:R:1:forces:R:3 virial="-8.078968864586242 -0.0027769085643485417 -0.0 -0.0027769085643485417 -8.07575248151639 0.0 -0.0 0.0 -8.10380672237337" fermi_energy=1.1719399076460002 core_to_fermi_energy=14.821638952887088 config_type=EOS energy=-3928.708890735 stress="0.06012334642100902 2.066563671579947e-05 0.0 2.066563671579947e-05 0.06009941023351126 -0.0 0.0 -0.0 0.060308188713772054" pbc="T T T"
P        2.27725428       1.31477846      -0.00009723      -0.60000000      -0.00092000      -0.00053000      -0.04508000
P        4.55457916       2.62959243       3.73971027      -0.60000000       0.00092000       0.00053000      -0.04508000
In       2.27726795       1.31478635       2.80068948       0.60000000      -0.00103000      -0.00060000       0.04508000
In       4.55456550       2.62958454       6.54049698       0.60000000       0.00103000       0.00060000       0.04508000
