4
Lattice="4.998554 -5.2e-05 0.0 2.499232 4.3289 0.0 0.0 0.0 8.208706" Properties=species:S:1:pos:R:3:mulliken_charges:R:1:forces:R:3 virial="-10.720319904196772 -0.0010421175623384696 -0.0 -0.0010421175623384696 -10.71910594810022 0.0 -0.0 0.0 -10.75252133687303" fermi_energy=-0.48577763609400004 core_to_fermi_energy=14.676427576413603 config_type=EOS energy=-3925.979119665 stress="0.060354338432248834 5.8670185783302625e-06 0.0 5.8670185783302625e-06 0.060347503979755995 -0.0 0.0 -0.0 0.060535629306319234" pbc="T T T"
P        2.49923451       1.44293923      -0.00010671      -0.50000000      -0.00031000      -0.00018000      -0.05109000
P        4.99854649       2.88591743       4.10424629      -0.50000000       0.00031000       0.00018000      -0.05109000
In       2.49924950       1.44294789       3.07369250       0.50000000      -0.00015000      -0.00009000       0.05108000
In       4.99853150       2.88590877       7.17804550       0.50000000       0.00015000       0.00008000       0.05110000
