4
Lattice="2.956301 -3.1e-05 0.0 1.478124 2.560247 0.0 0.0 0.0 4.854886" Properties=species:S:1:pos:R:3:mulliken_charges:R:1:forces:R:3 virial="138.70788572844424 0.027615080513245915 1.0550174026072936e-05 0.027615080513245915 138.67642717366297 5.9631418408238334e-06 1.0550174026072936e-05 5.9631418408238334e-06 143.12781462470082" fermi_energy=18.511142956584 core_to_fermi_energy=23.924256599473814 config_type=EOS energy=-3877.904882259 stress="-3.7747567474678254 -0.0007515089063019737 -2.8710941979062986e-07 -0.0007515089063019737 -3.7739006433515923 -1.6227923727296468e-07 -2.8710941979062986e-07 -1.6227923727296468e-07 -3.895039428851464" pbc="T T T"
P        1.47812541       0.85339936      -0.00006311      -0.68000000       0.00658000       0.00389000       1.44142000
P        2.95629664       1.70682176       2.42737989      -0.68000000      -0.00659000      -0.00390000       1.44873000
In       1.47813428       0.85340448       1.81787808       0.68000000       0.00005000       0.00012000      -1.44422000
In       2.95628777       1.70681664       4.24532108       0.68000000      -0.00004000      -0.00011000      -1.44593000
