4
Lattice="2.934103 -3.1e-05 0.0 1.467025 2.541023 0.0 0.0 0.0 4.818431" Properties=species:S:1:pos:R:3:mulliken_charges:R:1:forces:R:3 virial="144.99039182148329 0.03073929954269864 1.009007439837072e-05 0.03073929954269864 144.9551021226108 -7.623611767657879e-05 1.009007439837072e-05 -7.623611767657879e-05 149.7052219185792" fermi_energy=18.981682217358 core_to_fermi_energy=24.246738172955624 config_type=EOS energy=-3874.663700457 stress="-4.035961164363534 -0.0008556609690855876 -2.8086791066474663e-07 -0.0008556609690855876 -4.034978838208247 2.122113102800308e-06 -2.8086791066474663e-07 2.122113102800308e-06 -4.16720345517602" pbc="T T T"
P        1.46702653       0.84699140      -0.00006264      -0.67000000       0.01037000       0.00599000       1.51779000
P        2.93409854       1.69400568       2.40915286      -0.67000000      -0.01038000      -0.00608000       1.52095000
In       1.46703533       0.84699649       1.80422776       0.67000000       0.00141000       0.00091000      -1.51824000
In       2.93408973       1.69400060       4.21344326       0.67000000      -0.00141000      -0.00082000      -1.52051000
