4
Lattice="4.510189 -4.7e-05 0.0 2.255054 3.905961 0.0 0.0 0.0 7.406706" Properties=species:S:1:pos:R:3:mulliken_charges:R:1:forces:R:3 virial="-7.504227595320367 -0.0027592012280096825 0.0 -0.0027592012280096825 -7.501031059068908 -0.0 0.0 -0.0 -7.542889803082263" fermi_energy=1.399318236528 core_to_fermi_energy=14.873258677169746 config_type=EOS energy=-3928.938385517 stress="0.05751162437633792 2.1146232918492477e-05 -0.0 2.1146232918492477e-05 0.05748712645301882 0.0 -0.0 0.0 0.05780792753907098" pbc="T T T"
P        2.25505619       1.30196222      -0.00009629      -0.61000000      -0.00085000      -0.00049000      -0.04362000
P        4.51018230       2.60395959       3.70325671      -0.61000000       0.00085000       0.00049000      -0.04362000
In       2.25506972       1.30197003       2.77338921       0.61000000      -0.00096000      -0.00055000       0.04362000
In       4.51016877       2.60395178       6.47674221       0.61000000       0.00096000       0.00055000       0.04362000
