4
Lattice="3.711047 -3.9e-05 0.0 1.85549 3.21388 0.0 0.0 0.0 6.094341" Properties=species:S:1:pos:R:3:mulliken_charges:R:1:forces:R:3 virial="22.80128495843378 -0.0004818031379120504 4.5367527110362566e-07 -0.0004818031379120504 22.801781279180368 0.0 4.5367527110362566e-07 0.0 23.081267022593217" fermi_energy=7.5734453226555 core_to_fermi_energy=17.330137576191824 config_type=EOS energy=-3926.471174029 stress="-0.31369227554265905 6.62848269168802e-06 -6.241509125883258e-09 6.62848269168802e-06 -0.3136991037536428 -0.0 -6.241509125883258e-09 -0.0 -0.31754417296762494" pbc="T T T"
P        1.85549192       1.07127283      -0.00007923      -0.75000000      -0.00006000      -0.00005000       0.15427000
P        3.71104137       2.14257459       3.04709127      -0.75000000       0.00006000       0.00005000       0.15429000
In       1.85550306       1.07127926       2.28198333       0.75000000      -0.00000000      -0.00001000      -0.15427000
In       3.71103023       2.14256817       5.32915383       0.75000000       0.00000000       0.00001000      -0.15429000
