4
Lattice="4.110618 -4.3e-05 0.0 2.055272 3.55992 0.0 0.0 0.0 6.750523" Properties=species:S:1:pos:R:3:mulliken_charges:R:1:forces:R:3 virial="1.785226117274555 0.0 5.5490612880242126e-06 0.0 1.7852365988347658 0.0 5.5490612880242126e-06 0.0 1.8035503507723416" fermi_energy=4.1536273642335 core_to_fermi_energy=15.868594794613832 config_type=EOS energy=-3929.912554976 stress="-0.018071983840047805 -0.0 -5.617358213294932e-08 -0.0 -0.018072089945702946 -0.0 -5.617358213294932e-08 -0.0 -0.018257481491269056" pbc="T T T"
P        2.05527406       1.18661736      -0.00008776      -0.70000000      -0.00002000      -0.00001000       0.01148000
P        4.11061183       2.37326676       3.37517374      -0.70000000       0.00003000       0.00002000       0.01147000
In       2.05528639       1.18662448       2.52768608       0.70000000       0.00005000       0.00003000      -0.01147000
In       4.11059950       2.37325964       5.90294758       0.70000000      -0.00006000      -0.00003000      -0.01148000
