4
Lattice="2.845309 -3e-05 0.0 1.422629 2.464125 0.0 0.0 0.0 4.672613" Properties=species:S:1:pos:R:3:mulliken_charges:R:1:forces:R:3 virial="172.70404687398207 0.006572296316655688 -8.179075747191448e-07 0.006572296316655688 172.6966591238134 -8.179075747191448e-07 -8.179075747191448e-07 -8.179075747191448e-07 178.7964649568902" fermi_energy=21.016386281961 core_to_fermi_energy=25.634433610822143 config_type=EOS energy=-3859.882068378 stress="-5.271665982607253 -0.00020061458632413966 2.496603650353303e-08 -0.00020061458632413966 -5.2714404768825345 2.496603650353303e-08 2.496603650353303e-08 2.496603650353303e-08 -5.457632633307241" pbc="T T T"
P        1.42263035       0.82135925      -0.00006074      -0.63000000      -0.00760000      -0.00436000       1.84090000
P        2.84530480       1.64274068       2.33624576      -0.63000000       0.00759000       0.00436000       1.84326000
In       1.42263889       0.82136418       1.74962723       0.63000000      -0.00138000      -0.00076000      -1.84059000
In       2.84529627       1.64273575       4.08593373       0.63000000       0.00138000       0.00076000      -1.84357000
