4
Lattice="2.911905 -3e-05 0.0 1.455926 2.521798 0.0 0.0 0.0 4.781977" Properties=species:S:1:pos:R:3:mulliken_charges:R:1:forces:R:3 virial="151.49761604663627 0.022578332103792096 -8.613501317067538e-05 0.022578332103792096 151.4714811932635 -8.76692246011963e-07 -8.613501317067538e-05 -8.76692246011963e-07 156.55698354685373" fermi_energy=19.470398682978 core_to_fermi_energy=24.581062413085682 config_type=EOS energy=-3871.248746989 stress="-4.314279075267355 -0.0006429753041119897 2.4529130864721206e-06 -0.0006429753041119897 -4.313534818994658 2.496603650353303e-08 2.4529130864721206e-06 2.496603650353303e-08 -4.458357404087768" pbc="T T T"
P        1.45592765       0.84058345      -0.00006217      -0.66000000       0.01219000       0.00708000       1.58976000
P        2.91190044       1.68118959       2.39092633      -0.66000000      -0.01228000      -0.00707000       1.60078000
In       1.45593639       0.84058849       1.79057781       0.67000000       0.00266000       0.00152000      -1.59378000
In       2.91189170       1.68118455       4.18156631       0.66000000      -0.00258000      -0.00153000      -1.59676000
