4
Lattice="3.422468 -3.6e-05 0.0 1.711203 2.963961 0.0 0.0 0.0 5.620432" Properties=species:S:1:pos:R:3:mulliken_charges:R:1:forces:R:3 virial="50.79440952285629 2.348647076145367e-05 3.558556175977828e-07 2.348647076145367e-05 50.79443870301693 0.0 3.558556175977828e-07 0.0 51.553881563912114" fermi_energy=10.7111900693505 core_to_fermi_energy=18.953510543098997 config_type=EOS energy=-3917.737866661 stress="-0.8909056226817713 -4.1193960230829507e-07 -6.241509125883258e-09 -4.1193960230829507e-07 -0.8909061344855196 -0.0 -6.241509125883258e-09 -0.0 -0.904226338839359" pbc="T T T"
P        1.71120484       0.98796808      -0.00007307      -0.75000000      -0.00019000      -0.00009000       0.38890000
P        3.42246273       1.97596284       2.81014293      -0.75000000       0.00019000       0.00009000       0.38890000
In       1.71121511       0.98797401       2.10453142       0.75000000      -0.00005000      -0.00001000      -0.38890000
In       3.42245247       1.97595692       4.91474742       0.75000000       0.00005000       0.00001000      -0.38890000
