4
Lattice="4.954157 -5.2e-05 0.0 2.477034 4.290451 0.0 0.0 0.0 8.135797" Properties=species:S:1:pos:R:3:mulliken_charges:R:1:forces:R:3 virial="-10.64627743278572 -0.0011538324864412684 -0.0 -0.0011538324864412684 -10.644942268346313 0.0 -0.0 0.0 -10.677850779739302" fermi_energy=-0.3561698117205 core_to_fermi_energy=14.674136105724854 config_type=EOS energy=-3926.265619422 stress="0.061563362440496296 6.672173255569203e-06 0.0 6.672173255569203e-06 0.061555641693707586 -0.0 0.0 -0.0 0.061745939065446634" pbc="T T T"
P        2.47703642       1.43012299      -0.00010577      -0.51000000      -0.00028000      -0.00016000      -0.05132000
P        4.95414963       2.86028459       4.06779273      -0.51000000       0.00028000       0.00016000      -0.05132000
In       2.47705128       1.43013157       3.04639224       0.51000000      -0.00016000      -0.00009000       0.05133000
In       4.95413476       2.86027601       7.11429074       0.51000000       0.00016000       0.00009000       0.05131000
