4
Lattice="4.155015 -4.3e-05 0.0 2.07747 3.598369 0.0 0.0 0.0 6.823432" Properties=species:S:1:pos:R:3:mulliken_charges:R:1:forces:R:3 virial="0.3031005361062263 -1.1461616425624145e-05 5.094051744721843e-06 -1.1461616425624145e-05 0.30312409609554564 -5.094051744721843e-06 5.094051744721843e-06 -5.094051744721843e-06 0.30599013695841976" fermi_energy=3.778083046749 core_to_fermi_energy=15.701573765577436 config_type=EOS energy=-3929.945827314 stress="-0.002971002034484312 1.1234716426589864e-07 -4.993207300706606e-08 1.1234716426589864e-07 -0.0029712329703219698 4.993207300706606e-08 -4.993207300706606e-08 4.993207300706606e-08 -0.0029993260028975703" pbc="T T T"
P        2.07747215       1.19943360      -0.00008870      -0.69000000      -0.00001000      -0.00001000       0.00200000
P        4.15500870       2.39889959       3.41162730      -0.69000000       0.00002000       0.00001000       0.00198000
In       2.07748461       1.19944080       2.55498635       0.69000000       0.00004000       0.00002000      -0.00199000
In       4.15499623       2.39889240       5.96670235       0.69000000      -0.00004000      -0.00002000      -0.00199000
