4
Lattice="4.687776 -4.9e-05 0.0 2.343846 4.059757 0.0 0.0 0.0 7.698342" Properties=species:S:1:pos:R:3:mulliken_charges:R:1:forces:R:3 virial="-9.385730924226781 -0.0023098813280348377 0.0 -0.0023098813280348377 -9.383056180408689 0.0 0.0 0.0 -9.415694456085735" fermi_energy=0.5717928224985 core_to_fermi_energy=14.72179385242431 config_type=EOS energy=-3927.949140263 stress="0.06406213189451629 1.576605205198111e-05 -0.0 1.576605205198111e-05 0.06404387548032307 -0.0 -0.0 -0.0 0.0642666474240441" pbc="T T T"
P        2.34384822       1.35322653      -0.00010008      -0.57000000      -0.00083000      -0.00048000      -0.04714000
P        4.68776909       2.70648959       3.84907092      -0.57000000       0.00083000       0.00048000      -0.04714000
In       2.34386228       1.35323465       2.88259027       0.57000000      -0.00086000      -0.00050000       0.04714000
In       4.68775503       2.70648147       6.73176127       0.57000000       0.00086000       0.00050000       0.04714000
