4
Lattice="3.022897 -3.2e-05 0.0 1.511421 2.617921 0.0 0.0 0.0 4.96425" Properties=species:S:1:pos:R:3:mulliken_charges:R:1:forces:R:3 virial="121.30176222458276 0.015828589829527784 1.0298526371201446e-05 0.015828589829527784 121.28349116758218 -6.301717327139933e-05 1.0298526371201446e-05 -6.301717327139933e-05 124.9414593229935" fermi_energy=17.164560383217 core_to_fermi_energy=22.981538047782003 config_type=EOS energy=-3886.67196326 stress="-3.0876703328312605 -0.00040290813860314193 -2.621433832870968e-07 -0.00040290813860314193 -3.087205253020254 1.6040678453519974e-06 -2.621433832870968e-07 1.6040678453519974e-06 -3.180316841382785" pbc="T T T"
P        1.51142271       0.87262356      -0.00006454      -0.69000000       0.00518000       0.00296000       1.21800000
P        3.02289227       1.74527068       2.48206046      -0.69000000      -0.00518000      -0.00304000       1.23905000
In       1.51143178       0.87262879       1.85882866       0.69000000       0.00198000       0.00119000      -1.22869000
In       3.02288320       1.74526544       4.34095366       0.69000000      -0.00198000      -0.00112000      -1.22836000
