4
Lattice="4.754372 -5e-05 0.0 2.377143 4.117431 0.0 0.0 0.0 7.807706" Properties=species:S:1:pos:R:3:mulliken_charges:R:1:forces:R:3 virial="-9.848981063796924 -0.0020062010829480746 0.0 -0.0020062010829480746 -9.8466543284468 -0.0 0.0 -0.0 -9.88048595717037" fermi_energy=0.31097170206600006 core_to_fermi_energy=14.695869022183473 config_type=EOS energy=-3927.541226339 stress="0.06443854482688005 1.312589369173249e-05 -0.0 1.312589369173249e-05 0.06442332178612202 0.0 -0.0 0.0 0.06464467066576234" pbc="T T T"
P        2.37714552       1.37245073      -0.00010150      -0.55000000      -0.00064000      -0.00037000      -0.04864000
P        4.75436473       2.74493851       3.90375150      -0.55000000       0.00064000       0.00037000      -0.04864000
In       2.37715978       1.37245896       2.92354086       0.55000000      -0.00066000      -0.00038000       0.04864000
In       4.75435046       2.74493027       6.82739386       0.55000000       0.00066000       0.00039000       0.04864000
