4
Lattice="3.955229 -4.1e-05 0.0 1.977579 3.425349 0.0 0.0 0.0 6.495341" Properties=species:S:1:pos:R:3:mulliken_charges:R:1:forces:R:3 virial="8.148697239603068 -0.00018125273373892353 5.492507082997682e-07 -0.00018125273373892353 8.148877943086099 0.0 5.492507082997682e-07 0.0 8.244136690429361" fermi_energy=5.386874521158 core_to_fermi_energy=16.35626525461365 config_type=EOS energy=-3929.353050505 stress="-0.09259918542933215 2.059698011541475e-06 -6.241509125883258e-09 2.059698011541475e-06 -0.09260123888583457 -0.0 -6.241509125883258e-09 -0.0 -0.09368372877957301" pbc="T T T"
P        1.97758091       1.14176134      -0.00008444      -0.72000000      -0.00001000      -0.00001000       0.05248000
P        3.95522313       2.28355351       3.24758606      -0.72000000       0.00001000       0.00001000       0.05249000
In       1.97759278       1.14176819       2.43213497       0.72000000       0.00003000       0.00001000      -0.05248000
In       3.95521127       2.28354666       5.67980547       0.72000000      -0.00003000      -0.00001000      -0.05249000
