4
Lattice="4.132816 -4.3e-05 0.0 2.066371 3.579145 0.0 0.0 0.0 6.786978" Properties=species:S:1:pos:R:3:mulliken_charges:R:1:forces:R:3 virial="1.0271952253779357 -1.0652289103182275e-05 -0.0 -1.0652289103182275e-05 1.0271789336416604 0.0 -0.0 0.0 1.0374070109964395" fermi_energy=3.9645354533429997 core_to_fermi_energy=15.784075690129141 config_type=EOS energy=-3929.935227605 stress="-0.010231718393078676 1.0610565514001538e-07 0.0 1.0610565514001538e-07 -0.010231556113841403 -0.0 0.0 -0.0 -0.010333436267303197" pbc="T T T"
P        2.06637294       1.19302565      -0.00008823      -0.69000000      -0.00002000      -0.00002000       0.00666000
P        4.13280993       2.38608351       3.39340077      -0.69000000       0.00002000       0.00002000       0.00666000
In       2.06638533       1.19303281       2.54133640       0.69000000       0.00005000       0.00002000      -0.00666000
In       4.13279753       2.38607635       5.93482540       0.69000000      -0.00005000      -0.00002000      -0.00666000
