4
Lattice="4.376999 -4.6e-05 0.0 2.18846 3.790614 0.0 0.0 0.0 7.187978" Properties=species:S:1:pos:R:3:mulliken_charges:R:1:forces:R:3 virial="-5.316026583254463 -0.0022583984664726665 2.233090111871457e-06 -0.0022583984664726665 -5.313407168553238 -0.0 2.233090111871457e-06 -0.0 -5.346899798414457" fermi_energy=2.1756862476975 core_to_fermi_energy=15.096529719675317 config_type=EOS energy=-3929.521497874 stress="0.044575041897902595 1.8936738687929804e-05 -1.8724527377649774e-08 1.8936738687929804e-05 0.04455307802728861 0.0 -1.8724527377649774e-08 0.0 0.04483391473040773" pbc="T T T"
P        2.18846226       1.26351382      -0.00009344      -0.64000000      -0.00053000      -0.00031000      -0.02918000
P        4.37699236       2.52706176       3.59389556      -0.64000000       0.00054000       0.00031000      -0.02918000
In       2.18847539       1.26352140       2.69148805       0.64000000      -0.00053000      -0.00031000       0.02918000
In       4.37697923       2.52705418       6.28547705       0.64000000       0.00052000       0.00030000       0.02918000
