4
Lattice="4.487991 -4.7e-05 0.0 2.243955 3.886737 0.0 0.0 0.0 7.370251" Properties=species:S:1:pos:R:3:mulliken_charges:R:1:forces:R:3 virial="-7.189921741737588 -0.002709031680821404 8.024382940821693e-07 -0.002709031680821404 -7.1867866153226085 -0.0 8.024382940821693e-07 -0.0 -7.228571984610349" fermi_energy=1.5186945803295 core_to_fermi_energy=14.90312289954465 config_type=EOS energy=-3929.047447884 stress="0.0559245022282627 2.1071334808981878e-05 -6.241509125883258e-09 2.1071334808981878e-05 0.055900116652107874 0.0 -6.241509125883258e-09 0.0 0.056225130756819994" pbc="T T T"
P        2.24395732       1.29555426      -0.00009581      -0.61000000      -0.00081000      -0.00047000      -0.04159000
P        4.48798420       2.59114351       3.68502969      -0.61000000       0.00081000       0.00047000      -0.04160000
In       2.24397078       1.29556204       2.75973890       0.61000000      -0.00091000      -0.00052000       0.04159000
In       4.48797073       2.59113574       6.44486440       0.61000000       0.00090000       0.00052000       0.04160000
