4
Lattice="3.622253 -3.8e-05 0.0 1.811094 3.136982 0.0 0.0 0.0 5.948523" Properties=species:S:1:pos:R:3:mulliken_charges:R:1:forces:R:3 virial="29.9396309342814 -0.0007437800154179216 4.218831624605341e-07 -0.0007437800154179216 29.940409308716138 0.0 4.218831624605341e-07 0.0 30.33791648393287" fermi_energy=8.4485634481755 core_to_fermi_energy=17.751903423501872 config_type=EOS energy=-3924.553001842 stress="-0.44293893743478097 1.1003780588932184e-05 -6.241509125883258e-09 1.1003780588932184e-05 -0.44295045301911823 -0.0 -6.241509125883258e-09 -0.0 -0.4488313339892171" pbc="T T T"
P        1.81109574       1.04564068      -0.00007733      -0.75000000      -0.00005000      -0.00004000       0.21305000
P        3.62224763       2.09130959       2.97418417      -0.75000000       0.00005000       0.00004000       0.21306000
In       1.81110661       1.04564695       2.22738280       0.75000000      -0.00002000      -0.00003000      -0.21306000
In       3.62223677       2.09130332       5.20164430       0.75000000       0.00002000       0.00003000      -0.21305000
