4
Lattice="3.644452 -3.8e-05 0.0 1.822193 3.156206 0.0 0.0 0.0 5.984977" Properties=species:S:1:pos:R:3:mulliken_charges:R:1:forces:R:3 virial="28.04794512553087 -0.0006836321290973126 4.2968707045714177e-07 -0.0006836321290973126 28.048721570067187 -1.9765605241028524e-05 4.2968707045714177e-07 -1.9765605241028524e-05 28.413763080148193" fermi_energy=8.228232867878999 core_to_fermi_energy=17.645704192644494 config_type=EOS energy=-3925.086629872 stress="-0.4074162745391123 9.930241019280263e-06 -6.241509125883258e-09 9.930241019280263e-06 -0.4074275529461028 2.8710941979062986e-07 -6.241509125883258e-09 2.8710941979062986e-07 -0.41273003950701515" pbc="T T T"
P        1.82219496       1.05204864      -0.00007780      -0.75000000      -0.00004000      -0.00004000       0.19720000
P        3.64444640       2.10412568       2.99241070      -0.75000000       0.00004000       0.00002000       0.19719000
In       1.82220589       1.05205495       2.24103274       0.75000000      -0.00001000       0.00000000      -0.19719000
In       3.64443547       2.10411936       5.23352124       0.75000000       0.00001000       0.00002000      -0.19720000
