4
Lattice="3.466865 -3.6e-05 0.0 1.733401 3.00241 0.0 0.0 0.0 5.693341" Properties=species:S:1:pos:R:3:mulliken_charges:R:1:forces:R:3 virial="45.509991992560415 -0.0004471905723475496 -2.8481119992358413e-05 -0.0004471905723475496 45.51066814174672 -0.0 -2.8481119992358413e-05 -0.0 46.172139934261196" fermi_energy=10.1621187529095 core_to_fermi_energy=18.646710074163 config_type=EOS energy=-3919.607750404 stress="-0.7679448470454177 7.545984533192859e-06 4.805962026930109e-07 7.545984533192859e-06 -0.7679562565240997 0.0 4.805962026930109e-07 0.0 -0.7791180658825901" pbc="T T T"
P        1.73340293       1.00078433      -0.00007401      -0.75000000      -0.00011000      -0.00002000       0.33904000
P        3.46685960       2.00159568       2.84659649      -0.75000000       0.00008000       0.00002000       0.33905000
In       1.73341333       1.00079033       2.13183168       0.75000000      -0.00002000       0.00001000      -0.33905000
In       3.46684920       2.00158967       4.97850218       0.75000000       0.00005000      -0.00001000      -0.33904000
