4
Lattice="4.621181 -4.8e-05 0.0 2.310549 4.002084 0.0 0.0 0.0 7.588978" Properties=species:S:1:pos:R:3:mulliken_charges:R:1:forces:R:3 virial="-8.807267157846734 -0.0026306920910725957 -0.0 -0.0026306920910725957 -8.804228239810127 0.0 -0.0 0.0 -8.82755406009284" fermi_energy=0.8575395711330001 core_to_fermi_energy=14.762438136882736 config_type=EOS energy=-3928.340084479 stress="0.06275034143851115 1.8743251905027423e-05 0.0 1.8743251905027423e-05 0.06272868964335346 -0.0 0.0 -0.0 0.06289488230684835" pbc="T T T"
P        2.31055125       1.33400266      -0.00009866      -0.58000000      -0.00093000      -0.00054000      -0.04620000
P        4.62117413       2.66804134       3.79439034      -0.58000000       0.00093000       0.00054000      -0.04621000
In       2.31056511       1.33401067       2.84163969       0.58000000      -0.00100000      -0.00058000       0.04621000
In       4.62116027       2.66803334       6.63612869       0.58000000       0.00100000       0.00058000       0.04620000
