4
Lattice="3.200484 -3.3e-05 0.0 1.600213 2.771716 0.0 0.0 0.0 5.255886" Properties=species:S:1:pos:R:3:mulliken_charges:R:1:forces:R:3 virial="83.94882880561474 -0.0005988911447533424 8.73019161448021e-07 -0.0005988911447533424 83.94963431129437 -4.9180079428238516e-05 8.73019161448021e-07 -4.9180079428238516e-05 85.8688295827231" fermi_energy=13.9427052470325 core_to_fermi_energy=20.899684545142005 config_type=EOS energy=-3904.269020775 stress="-1.8005356728770463 1.2845025781067744e-05 -1.8724527377649774e-08 1.2845025781067744e-05 -1.8005529493743067 1.0548150422742705e-06 -1.8724527377649774e-08 1.0548150422742705e-06 -1.841715876821762" pbc="T T T"
P        1.60021473       0.92388787      -0.00006833      -0.73000000      -0.00282000      -0.00162000       0.76205000
P        3.20047907       1.84780068       2.62787467      -0.73000000       0.00281000       0.00156000       0.77040000
In       1.60022433       0.92389341       1.96802972       0.73000000      -0.00089000      -0.00045000      -0.76762000
In       3.20046947       1.84779513       4.59597272       0.73000000       0.00090000       0.00051000      -0.76484000
