4
Lattice="3.933031 -4.1e-05 0.0 1.96648 3.406125 0.0 0.0 0.0 6.458887" Properties=species:S:1:pos:R:3:mulliken_charges:R:1:forces:R:3 virial="9.224895962191889 -0.00019549985161136405 1.0261041935403086e-05 -0.00019549985161136405 9.225107123633823 0.0 1.0261041935403086e-05 0.0 9.333895230287803" fermi_energy=5.5680207077745 core_to_fermi_energy=16.429019517009767 config_type=EOS energy=-3929.205912279 stress="-0.10661375143191705 2.2594263035697395e-06 -1.185886733917819e-07 2.2594263035697395e-06 -0.10661619186198527 -0.0 -1.185886733917819e-07 -0.0 -0.10787347521879405" pbc="T T T"
P        1.96648204       1.13535339      -0.00008397      -0.72000000      -0.00000000      -0.00001000       0.05983000
P        3.93302503       2.27073743       3.22935953      -0.72000000       0.00001000       0.00001000       0.05983000
In       1.96649383       1.13536020       2.41848502       0.72000000       0.00001000       0.00001000      -0.05983000
In       3.93301323       2.27073061       5.64792852       0.72000000      -0.00002000      -0.00000000      -0.05983000
