4
Lattice="4.820967 -5e-05 0.0 2.41044 4.175104 0.0 0.0 0.0 7.917069" Properties=species:S:1:pos:R:3:mulliken_charges:R:1:forces:R:3 virial="-10.206541269863129 -0.0016799166967589498 0.0 -0.0016799166967589498 -10.204590815960023 -0.0 0.0 -0.0 -10.238147375767753" fermi_energy=0.07129382739 core_to_fermi_energy=14.681037729175591 config_type=EOS energy=-3927.121801965 stress="0.06404866895933176 1.0541908913616823e-05 -0.0 1.0541908913616823e-05 0.06403642935993589 0.0 -0.0 0.0 0.06424700539482495" pbc="T T T"
P        2.41044248       1.39167492      -0.00010292      -0.54000000      -0.00045000      -0.00026000      -0.05012000
P        4.82095969       2.78338743       3.95843158      -0.54000000       0.00045000       0.00026000      -0.05012000
In       2.41045695       1.39168328       2.96449107       0.54000000      -0.00044000      -0.00025000       0.05012000
In       4.82094523       2.78337908       6.92302557       0.54000000       0.00044000       0.00025000       0.05012000
