4
Lattice="3.733245 -3.9e-05 0.0 1.866589 3.233104 0.0 0.0 0.0 6.130796" Properties=species:S:1:pos:R:3:mulliken_charges:R:1:forces:R:3 virial="21.186434828551086 -0.0004221448129278382 4.618652220217048e-07 -0.0004221448129278382 21.186914244651543 -1.6165282770759667e-05 4.618652220217048e-07 -1.6165282770759667e-05 21.441498049951683" fermi_energy=7.355264441734501 core_to_fermi_energy=17.224091545429186 config_type=EOS energy=-3926.866166857 stress="-0.2863071736566436 5.704739341057298e-06 -6.241509125883258e-09 5.704739341057298e-06 -0.28631365234311623 2.18452819405914e-07 -6.241509125883258e-09 2.18452819405914e-07 -0.2897540221053761" pbc="T T T"
P        1.86659080       1.07768079      -0.00007970      -0.74000000      -0.00007000      -0.00005000       0.14146000
P        3.73323947       2.15539068       3.06531830      -0.74000000       0.00007000       0.00003000       0.14145000
In       1.86660200       1.07768726       2.29563365       0.74000000       0.00000000       0.00001000      -0.14147000
In       3.73322827       2.15538421       5.36103165       0.74000000      -0.00000000       0.00001000      -0.14144000
