4
Lattice="3.444666 -3.6e-05 0.0 1.722302 2.983186 0.0 0.0 0.0 5.656886" Properties=species:S:1:pos:R:3:mulliken_charges:R:1:forces:R:3 virial="48.10138962434745 -0.0003287193771200133 7.256498391170272e-07 -0.0003287193771200133 48.101711450051106 0.0 7.256498391170272e-07 0.0 48.810066876552455" fermi_energy=10.433062508376 core_to_fermi_energy=18.79705868791625 config_type=EOS energy=-3918.701514889 stress="-0.8274659377678518 5.654807268050232e-06 -1.2483018251766515e-08 5.654807268050232e-06 -0.8274714739864466 -0.0 -1.2483018251766515e-08 -0.0 -0.8396569844642188" pbc="T T T"
P        1.72230372       0.99437637      -0.00007354      -0.75000000      -0.00013000      -0.00008000       0.36331000
P        3.44466083       1.98877959       2.82836946      -0.75000000       0.00013000       0.00008000       0.36326000
In       1.72231406       0.99438234       2.11818136       0.75000000      -0.00004000      -0.00003000      -0.36330000
In       3.44465050       1.98877363       4.94662436       0.75000000       0.00004000       0.00003000      -0.36327000
