4
Lattice="3.555658 -3.7e-05 0.0 1.777797 3.079308 0.0 0.0 0.0 5.839159" Properties=species:S:1:pos:R:3:mulliken_charges:R:1:forces:R:3 virial="36.083844641464395 -0.0010315165010279306 2.434139518866683e-05 -0.0010315165010279306 36.08497033123206 -2.3543316657890872e-05 2.434139518866683e-05 -2.3543316657890872e-05 36.59248443052311" fermi_energy=9.143242883075999 core_to_fermi_energy=18.100343569341298 config_type=EOS energy=-3922.709415817 stress="-0.5643997099074384 1.6134301090408223e-05 -3.8073205667887874e-07 1.6134301090408223e-05 -0.5644173172046826 3.682490384271122e-07 -3.8073205667887874e-07 3.682490384271122e-07 -0.5723555181713459" pbc="T T T"
P        1.77779878       1.02641648      -0.00007591      -0.75000000      -0.00002000      -0.00004000       0.25697000
P        3.55565267       2.05286068       2.91950359      -0.75000000       0.00005000       0.00002000       0.25696000
In       1.77780944       1.02642264       2.18643221       0.75000000      -0.00001000       0.00000000      -0.25697000
In       3.55564200       2.05285452       5.10601171       0.75000000      -0.00001000       0.00002000      -0.25697000
