4
Lattice="4.931959 -5.1e-05 0.0 2.465935 4.271227 0.0 0.0 0.0 8.099342" Properties=species:S:1:pos:R:3:mulliken_charges:R:1:forces:R:3 virial="-10.596395743862756 -0.0012193251670344065 -0.0 -0.0012193251670344065 -10.594983669477179 0.0 -0.0 0.0 -10.627774464711521" fermi_energy=-0.289148171697 core_to_fermi_energy=14.673686573652915 config_type=EOS energy=-3926.408980567 stress="0.062106024209937084 7.1465279491363305e-06 0.0 7.1465279491363305e-06 0.06209774796883617 -0.0 0.0 -0.0 0.06228993651784037" pbc="T T T"
P        2.46593754       1.42371537      -0.00010529      -0.52000000      -0.00029000      -0.00017000      -0.05134000
P        4.93195153       2.84746918       4.04956571      -0.52000000       0.00029000       0.00017000      -0.05134000
In       2.46595234       1.42372391       3.03274192       0.52000000      -0.00018000      -0.00010000       0.05135000
In       4.93193673       2.84746063       7.08241292       0.52000000       0.00018000       0.00010000       0.05134000
