4
Lattice="4.77657 -5e-05 0.0 2.388242 4.136655 0.0 0.0 0.0 7.84416" Properties=species:S:1:pos:R:3:mulliken_charges:R:1:forces:R:3 virial="-9.979307114672197 -0.0018980302494974964 0.0 -0.0018980302494974964 -9.977105322191127 9.673956419457167e-07 0.0 9.673956419457167e-07 -10.01092934341612" fermi_energy=0.2288749550295 core_to_fermi_energy=14.689826462141399 config_type=EOS energy=-3927.402464619 stress="0.06438517368234463 1.2245840904982954e-05 -0.0 1.2245840904982954e-05 0.06437096800757411 -6.241509125883258e-09 -0.0 -6.241509125883258e-09 0.0645891961326515" pbc="T T T"
P        2.38824440       1.37885868      -0.00010197      -0.55000000      -0.00057000      -0.00033000      -0.04917000
P        4.77656283       2.75775459       3.92197803      -0.55000000       0.00057000       0.00033000      -0.04917000
In       2.38825873       1.37886695       2.93719080       0.55000000      -0.00059000      -0.00034000       0.04917000
In       4.77654850       2.75774632       6.85927080       0.55000000       0.00059000       0.00034000       0.04917000
