4
Lattice="4.332602 -4.5e-05 0.0 2.166262 3.752165 0.0 0.0 0.0 7.115069" Properties=species:S:1:pos:R:3:mulliken_charges:R:1:forces:R:3 virial="-4.4105331333175535 -0.0020755820352703525 -0.0 -0.0020755820352703525 -4.4081218484487525 -2.16582473245602e-06 -0.0 -2.16582473245602e-06 -4.434202709876987" fermi_energy=2.467473923691 core_to_fermi_energy=15.19579113594057 config_type=EOS energy=-3929.670846338 stress="0.038131039491448304 1.7944338736914365e-05 0.0 1.7944338736914365e-05 0.03811019285096786 1.8724527377649774e-08 0.0 1.8724527377649774e-08 0.03833567360964951" pbc="T T T"
P        2.16626417       1.25069791      -0.00009250      -0.65000000      -0.00042000      -0.00024000      -0.02341000
P        4.33259550       2.50142959       3.55744200      -0.65000000       0.00042000       0.00024000      -0.02340000
In       2.16627717       1.25070542       2.66418778       0.65000000      -0.00038000      -0.00022000       0.02340000
In       4.33258250       2.50142209       6.22172228       0.65000000       0.00038000       0.00022000       0.02341000
