4
Lattice="3.378071 -3.5e-05 0.0 1.689005 2.925512 0.0 0.0 0.0 5.547523" Properties=species:S:1:pos:R:3:mulliken_charges:R:1:forces:R:3 virial="56.498994936468215 0.0017581506123080007 6.84371589065006e-07 0.0017581506123080007 56.49708793503529 -0.0 6.84371589065006e-07 -0.0 57.38510558255781" fermi_energy=11.289459201360001 core_to_fermi_energy=19.28524425942465 config_type=EOS energy=-3915.627088545 stress="-1.0305483106947106 -3.206887388878818e-05 -1.2483018251766515e-08 -3.206887388878818e-05 -1.0305135267643522 0.0 -1.2483018251766515e-08 0.0 -1.046711073066733" pbc="T T T"
P        1.68900675       0.97515217      -0.00007212      -0.75000000      -0.00041000      -0.00021000       0.44098000
P        3.37806587       1.95033068       2.77368938      -0.75000000       0.00041000       0.00021000       0.44099000
In       1.68901689       0.97515802       2.07723115       0.75000000      -0.00016000      -0.00006000      -0.44099000
In       3.37805573       1.95032483       4.85099265       0.75000000       0.00016000       0.00006000      -0.44098000
