4
Lattice="3.289277 -3.4e-05 0.0 1.644609 2.848614 0.0 0.0 0.0 5.401704" Properties=species:S:1:pos:R:3:mulliken_charges:R:1:forces:R:3 virial="69.20032611894695 -0.0024729073959901546 6.318107807844034e-07 -0.0024729073959901546 69.20318064005454 3.159053903922017e-07 6.318107807844034e-07 3.159053903922017e-07 70.50190781994147" fermi_energy=12.533672546238002 core_to_fermi_energy=20.022614819125668 config_type=EOS energy=-3910.585897565 stress="-1.3672272779178478 4.885853343741414e-05 -1.2483018251766515e-08 4.885853343741414e-05 -1.3672836761943095 -6.241509125883258e-09 -1.2483018251766515e-08 -6.241509125883258e-09 -1.3929433128824744" pbc="T T T"
P        1.64461058       0.94952002      -0.00007022      -0.74000000       0.00160000       0.00093000       0.58441000
P        3.28927213       1.89906568       2.70078178      -0.74000000      -0.00160000      -0.00093000       0.58445000
In       1.64462044       0.94952572       2.02263025       0.74000000       0.00039000       0.00023000      -0.58440000
In       3.28926227       1.89905998       4.72348225       0.74000000      -0.00039000      -0.00023000      -0.58446000
