4
Lattice="3.999626 -4.2e-05 0.0 1.999777 3.463798 0.0 0.0 0.0 6.568251" Properties=species:S:1:pos:R:3:mulliken_charges:R:1:forces:R:3 virial="6.1285388203172975 -0.00010791144905686674 8.51932492554211e-06 -0.00010791144905686674 6.128687056571002 5.679549950361407e-07 8.51932492554211e-06 5.679549950361407e-07 6.1984660072611435" fermi_energy=5.0336707503480005 core_to_fermi_energy=16.218638507341847 config_type=EOS energy=-3929.592476049 stress="-0.06734922891717182 1.185886733917819e-06 -9.362263688824888e-08 1.185886733917819e-06 -0.06735085795105368 -6.241509125883258e-09 -9.362263688824888e-08 -6.241509125883258e-09 -0.06811768976225971" pbc="T T T"
P        1.99977900       1.15457725      -0.00008539      -0.72000000      -0.00002000      -0.00001000       0.03909000
P        3.99962000       2.30918568       3.28404011      -0.72000000       0.00003000       0.00001000       0.03911000
In       1.99979100       1.15458418       2.45943561       0.72000000       0.00003000       0.00003000      -0.03909000
In       3.99960800       2.30917875       5.74356111       0.72000000      -0.00004000      -0.00003000      -0.03910000
