4
Lattice="4.976356 -5.2e-05 0.0 2.488133 4.309676 0.0 0.0 0.0 8.172251" Properties=species:S:1:pos:R:3:mulliken_charges:R:1:forces:R:3 virial="-10.687477619712997 -0.0010928372198474362 -0.0 -0.0010928372198474362 -10.686204283853233 0.0 -0.0 0.0 -10.719329613036617" fermi_energy=-0.4216948255965 core_to_fermi_energy=14.675064558163998 config_type=EOS energy=-3926.12229112 stress="0.060978233442963 6.235267616757375e-06 0.0 6.235267616757375e-06 0.06097096832634046 -0.0 0.0 -0.0 0.061159967464181335" pbc="T T T"
P        2.48813563       1.43653128      -0.00010624      -0.51000000      -0.00029000      -0.00017000      -0.05122000
P        4.97634839       2.87310134       4.08601926      -0.51000000       0.00029000       0.00017000      -0.05122000
In       2.48815056       1.43653990       3.06004218       0.51000000      -0.00015000      -0.00008000       0.05123000
In       4.97633346       2.87309272       7.14616768       0.51000000       0.00015000       0.00008000       0.05122000
