4
Lattice="4.22161 -4.4e-05 0.0 2.110767 3.656043 0.0 0.0 0.0 6.932796" Properties=species:S:1:pos:R:3:mulliken_charges:R:1:forces:R:3 virial="-1.688112899891044 -7.346538083999039e-05 4.0072025912722035e-06 -7.346538083999039e-05 -1.6880360951747115 -0.0 4.0072025912722035e-06 -0.0 -1.6927058219277407" fermi_energy=3.2443589511660003 core_to_fermi_energy=15.475585394215695 config_type=EOS energy=-3929.91212392 stress="0.015776150813746788 6.865660038471584e-07 -3.744905475529955e-08 6.865660038471584e-07 0.015775433040197313 0.0 -3.744905475529955e-08 0.0 0.01581907367200549" pbc="T T T"
P        2.11076911       1.21865780      -0.00009013      -0.67000000      -0.00004000      -0.00003000      -0.01162000
P        4.22160366       2.43734851       3.46630787      -0.67000000       0.00004000       0.00003000      -0.01162000
In       2.11078178       1.21866511       2.59593693       0.67000000      -0.00001000      -0.00001000       0.01162000
In       4.22159100       2.43734120       6.06233493       0.67000000       0.00001000       0.00001000       0.01162000
