4
Lattice="4.665578 -4.9e-05 0.0 2.332747 4.040533 0.0 0.0 0.0 7.661888" Properties=species:S:1:pos:R:3:mulliken_charges:R:1:forces:R:3 virial="-9.214466059032587 -0.002450313243743959 -0.0 -0.002450313243743959 -9.211630799594921 -0.0 -0.0 -0.0 -9.232643272400361" fermi_energy=0.6641482614915001 core_to_fermi_energy=14.73352087068843 config_type=EOS energy=-3928.08105761 stress="0.0637951451001475 1.6964421804150695e-05 0.0 1.6964421804150695e-05 0.0637755155539466 0.0 0.0 0.0 0.06392099264865268" pbc="T T T"
P        2.33274934       1.34681857      -0.00009960      -0.57000000      -0.00086000      -0.00050000      -0.04692000
P        4.66557099       2.69367351       3.83084440      -0.57000000       0.00087000       0.00050000      -0.04692000
In       2.33276334       1.34682665       2.86894033       0.57000000      -0.00090000      -0.00052000       0.04692000
In       4.66555700       2.69366543       6.69988433       0.57000000       0.00089000       0.00052000       0.04692000
