4
Lattice="3.267079 -3.4e-05 0.0 1.63351 2.82939 0.0 0.0 0.0 5.36525" Properties=species:S:1:pos:R:3:mulliken_charges:R:1:forces:R:3 virial="72.67342229923628 -0.00373475363838852 4.395648708256692e-05 -0.00373475363838852 72.67767833966514 4.395648708256692e-05 4.395648708256692e-05 4.395648708256692e-05 74.11708087075085" fermi_energy=12.8663317217505 core_to_fermi_energy=20.225167929814468 config_type=EOS energy=-3909.135736039 stress="-1.4653136299216183 7.53038076037815e-05 -8.862942958754227e-07 7.53038076037815e-05 -1.46539944443059 -8.862942958754227e-07 -8.862942958754227e-07 -8.862942958754227e-07 -1.494422106099927" pbc="T T T"
P        1.63351170       0.94311206      -0.00006975      -0.74000000       0.00213000       0.00123000       0.62688000
P        3.26707404       1.88624959       2.68255525      -0.74000000      -0.00209000      -0.00119000       0.62688000
In       1.63352150       0.94311772       2.00898031       0.74000000       0.00073000       0.00040000      -0.62688000
In       3.26706423       1.88624394       4.69160531       0.74000000      -0.00077000      -0.00045000      -0.62688000
