4
Lattice="4.598983 -4.8e-05 0.0 2.29945 3.982859 0.0 0.0 0.0 7.552524" Properties=species:S:1:pos:R:3:mulliken_charges:R:1:forces:R:3 virial="-8.58076392718567 -0.0026991688335596337 -0.0 -0.0026991688335596337 -8.577634756407416 0.0 -0.0 0.0 -8.60249974837799" fermi_energy=0.9589564011645001 core_to_fermi_energy=14.779920362968605 config_type=EOS energy=-3928.465899453 stress="0.06202610168558016 1.9510957527511065e-05 0.0 1.9510957527511065e-05 0.06200348245650796 -0.0 0.0 -0.0 0.062183219194806016" pbc="T T T"
P        2.29945237       1.32759437      -0.00009818      -0.59000000      -0.00094000      -0.00054000      -0.04587000
P        4.59897603       2.65522459       3.77616382      -0.59000000       0.00094000       0.00054000      -0.04587000
In       2.29946617       1.32760234       2.82798974       0.59000000      -0.00103000      -0.00059000       0.04587000
In       4.59896223       2.65521663       6.60425174       0.59000000       0.00103000       0.00059000       0.04587000
