4
Lattice="4.421396 -4.6e-05 0.0 2.210658 3.829063 0.0 0.0 0.0 7.260887" Properties=species:S:1:pos:R:3:mulliken_charges:R:1:forces:R:3 virial="-6.129046532280708 -0.002463622307626477 1.5344891358620226e-06 -0.002463622307626477 -6.126180106574918 -0.0 1.5344891358620226e-06 -0.0 -6.164685809705672" fermi_energy=1.9006063617870002 core_to_fermi_energy=15.010014932251396 config_type=EOS energy=-3929.347560931 stress="0.049859590361587186 2.004148580321114e-05 -1.2483018251766515e-08 2.004148580321114e-05 0.04983627208349289 0.0 -1.2483018251766515e-08 0.0 0.05014951470199359" pbc="T T T"
P        2.21066035       1.27633007      -0.00009439      -0.63000000      -0.00065000      -0.00037000      -0.03457000
P        4.42138923       2.55269459       3.63034911      -0.63000000       0.00065000       0.00037000      -0.03456000
In       2.21067361       1.27633772       2.71878831       0.63000000      -0.00069000      -0.00039000       0.03457000
In       4.42137597       2.55268693       6.34923181       0.63000000       0.00068000       0.00039000       0.03456000
