4
Lattice="3.089492 -3.2e-05 0.0 1.544718 2.675594 0.0 0.0 0.0 5.073613" Properties=species:S:1:pos:R:3:mulliken_charges:R:1:forces:R:3 virial="105.94142248625975 -0.014045956329911527 4.711827014395011e-06 -0.014045956329911527 105.95759295303681 3.141218009596674e-06 4.711827014395011e-06 3.141218009596674e-06 108.8116840039438" fermi_energy=15.892156043997002 core_to_fermi_energy=22.14088749455277 config_type=EOS energy=-3894.162338837 stress="-2.5260304247725047 0.00033490689667664385 -1.1234716426589864e-07 0.00033490689667664385 -2.5264159877572467 -7.48981095105991e-08 -1.1234716426589864e-07 -7.48981095105991e-08 -2.594467941945393" pbc="T T T"
P        1.54471967       0.89184776      -0.00006596      -0.71000000       0.00391000       0.00226000       1.01359000
P        3.08948724       1.78371959       2.53674054      -0.71000000      -0.00392000      -0.00227000       1.04606000
In       1.54472894       0.89185311       1.89977887       0.71000000       0.00290000       0.00168000      -1.03084000
In       3.08947797       1.78371424       4.43658537       0.71000000      -0.00289000      -0.00167000      -1.02880000
