4
Lattice="5.020752 -5.2e-05 0.0 2.510331 4.348125 0.0 0.0 0.0 8.245161" Properties=species:S:1:pos:R:3:mulliken_charges:R:1:forces:R:3 virial="-10.745121528969621 -0.0010055071728259275 -0.0 -0.0010055071728259275 -10.743958735758588 -1.1234717014814835e-06 -0.0 -1.1234717014814835e-06 -10.77775164106745" fermi_energy=-0.5484726659820001 core_to_fermi_energy=14.678188425104596 config_type=EOS energy=-3925.836205521 stress="0.05969511647988216 5.586150667665515e-06 0.0 5.586150667665515e-06 0.059688656517936874 6.241509125883258e-09 0.0 6.241509125883258e-09 0.059876394870934324" pbc="T T T"
P        2.51033339       1.44934752      -0.00010719      -0.50000000      -0.00033000      -0.00019000      -0.05094000
P        5.02074459       2.89873418       4.12247331      -0.50000000       0.00032000       0.00019000      -0.05094000
In       2.51034845       1.44935622       3.08734282       0.50000000      -0.00016000      -0.00009000       0.05093000
In       5.02072953       2.89872548       7.20992332       0.50000000       0.00016000       0.00009000       0.05095000
