4
Lattice="3.333674 -3.5e-05 0.0 1.666807 2.887063 0.0 0.0 0.0 5.474614" Properties=species:S:1:pos:R:3:mulliken_charges:R:1:forces:R:3 virial="62.62591702295183 0.0022833490181924996 3.8806738318697244e-05 0.0022833490181924996 62.62327388942753 0.0 3.8806738318697244e-05 0.0 63.68525251284373" fermi_energy=11.8966812464775 core_to_fermi_energy=19.641420329763587 config_type=EOS energy=-3913.251499536 stress="-1.1885530566843232 -4.333479786100746e-05 -7.364980768542244e-07 -4.333479786100746e-05 -1.1885028936754785 -0.0 -7.364980768542244e-07 -0.0 -1.2086577752164889" pbc="T T T"
P        1.66680866       0.96233593      -0.00007117      -0.75000000      -0.00014000      -0.00009000       0.50700000
P        3.33366900       1.92469784       2.73723583      -0.75000000       0.00018000       0.00009000       0.50696000
In       1.66681867       0.96234170       2.04993089       0.75000000      -0.00027000      -0.00014000      -0.50700000
In       3.33365900       1.92469207       4.78723789       0.75000000       0.00023000       0.00014000      -0.50695000
