4
Lattice="3.822039 -4e-05 0.0 1.910985 3.310002 0.0 0.0 0.0 6.276614" Properties=species:S:1:pos:R:3:mulliken_charges:R:1:forces:R:3 virial="15.323991438718958 -0.0003320594377870978 0.0 -0.0003320594377870978 15.324381980266683 4.956111011747729e-07 0.0 4.956111011747729e-07 15.502809410856118" fermi_energy=6.5262424015575 core_to_fermi_energy=16.839578899841175 config_type=EOS energy=-3928.154614508 stress="-0.19298363612721617 4.181811114341783e-06 -0.0 4.181811114341783e-06 -0.19298855443640736 -6.241509125883258e-09 -0.0 -6.241509125883258e-09 -0.19523559134436222" pbc="T T T"
P        1.91098698       1.10331294      -0.00008160      -0.74000000       0.00001000       0.00000000       0.09555000
P        3.82203320       2.20665568       3.13822540      -0.74000000      -0.00001000      -0.00000000       0.09555000
In       1.91099844       1.10331956       2.35023418       0.74000000       0.00002000       0.00001000      -0.09555000
In       3.82202173       2.20664906       5.48854118       0.74000000      -0.00002000      -0.00001000      -0.09555000
