4
Lattice="4.843165 -5e-05 0.0 2.421539 4.194329 0.0 0.0 0.0 7.953524" Properties=species:S:1:pos:R:3:mulliken_charges:R:1:forces:R:3 virial="-10.304268968586527 -0.0015791933638299358 0.0 -0.0015791933638299358 -10.302438677427299 -0.0 0.0 -0.0 -10.335764094473587" fermi_energy=-0.0044354556735 core_to_fermi_energy=14.67806406907743 config_type=EOS energy=-3926.980220213 stress="0.06377687620293604 9.774203291133181e-06 -0.0 9.774203291133181e-06 0.06376554786387256 0.0 -0.0 0.0 0.06397181101595563" pbc="T T T"
P        2.42154136       1.39808321      -0.00010340      -0.53000000      -0.00039000      -0.00023000      -0.05051000
P        4.84315779       2.79620418       3.97665860      -0.53000000       0.00040000       0.00023000      -0.05051000
In       2.42155589       1.39809160       2.97814139       0.53000000      -0.00037000      -0.00021000       0.05051000
In       4.84314326       2.79619579       6.95490339       0.53000000       0.00037000       0.00021000       0.05051000
