4
Lattice="3.489063 -3.6e-05 0.0 1.7445 3.021635 0.0 0.0 0.0 5.729796" Properties=species:S:1:pos:R:3:mulliken_charges:R:1:forces:R:3 virial="43.017631927996256 -0.0004961786346853401 7.540708733819759e-07 -0.0004961786346853401 43.01820954628527 -0.0 7.540708733819759e-07 -0.0 43.63599153518937" fermi_energy=9.8982227460285 core_to_fermi_energy=18.502377353295017 config_type=EOS energy=-3920.459243816 stress="-0.7121212388121747 8.213826009662366e-06 -1.2483018251766515e-08 8.213826009662366e-06 -0.7121308008041557 0.0 -1.2483018251766515e-08 0.0 -0.7223576695446435" pbc="T T T"
P        1.74450181       1.00719262      -0.00007449      -0.75000000      -0.00006000      -0.00003000       0.31607000
P        3.48905770       2.01441243       2.86482351      -0.75000000       0.00006000       0.00003000       0.31612000
In       1.74451228       1.00719866       2.14548200       0.75000000      -0.00003000      -0.00001000      -0.31608000
In       3.48904723       2.01440638       5.01038000       0.75000000       0.00003000       0.00001000      -0.31611000
