4
Lattice="3.045095 -3.2e-05 0.0 1.52252 2.637145 0.0 0.0 0.0 5.000704" Properties=species:S:1:pos:R:3:mulliken_charges:R:1:forces:R:3 virial="115.97886960347562 0.0035523850712427746 1.1279004318487608e-05 0.0035523850712427746 115.97474725271948 6.767402591092563e-06 1.1279004318487608e-05 6.767402591092563e-06 119.34157014491448" fermi_energy=16.7236543201635 core_to_fermi_energy=22.678811667333346 config_type=EOS energy=-3889.301232019 stress="-2.8880867377090613 -8.846090884114342e-05 -2.8086791066474663e-07 -8.846090884114342e-05 -2.887984083608468 -1.6852074639884795e-07 -2.8086791066474663e-07 -1.6852074639884795e-07 -2.9718241535833547" pbc="T T T"
P        1.52252159       0.87903151      -0.00006501      -0.70000000       0.00671000       0.00388000       1.14728000
P        3.04509037       1.75808676       2.50028699      -0.70000000      -0.00671000      -0.00388000       1.17278000
In       1.52253072       0.87903679       1.87247861       0.70000000       0.00372000       0.00215000      -1.16047000
In       3.04508123       1.75808149       4.37283061       0.70000000      -0.00372000      -0.00215000      -1.15959000
