4
Lattice="3.11169 -3.2e-05 0.0 1.555817 2.694819 0.0 0.0 0.0 5.110068" Properties=species:S:1:pos:R:3:mulliken_charges:R:1:forces:R:3 virial="101.20689959219952 -0.01058518948602157 5.349026977624726e-07 -0.01058518948602157 101.21885493494587 -5.803694270722828e-05 5.349026977624726e-07 -5.803694270722828e-05 103.85831598252251" fermi_energy=15.498189619206002 core_to_fermi_energy=21.889493214052607 config_type=EOS energy=-3896.4065372 stress="-2.3618642794266393 0.0002470264481842076 -1.2483018251766515e-08 0.0002470264481842076 -2.3621432811260754 1.354407480316667e-06 -1.2483018251766515e-08 1.354407480316667e-06 -2.4237403539573608" pbc="T T T"
P        1.55581855       0.89825605      -0.00006643      -0.71000000       0.00067000       0.00029000       0.95237000
P        3.11168534       1.79653634       2.55496757      -0.71000000      -0.00067000      -0.00036000       0.98693000
In       1.55582789       0.89826144       1.91342919       0.71000000       0.00073000       0.00040000      -0.97091000
In       3.11167600       1.79653095       4.46846319       0.71000000      -0.00073000      -0.00033000      -0.96839000
