 +-------------------------------------------------+
 |                                                 |
 |      CCC   AA    SSS  TTTTT  EEEEE  PPPP        |
 |     C     A  A  S       T    E      P   P       |
 |     C     AAAA   SS     T    EEE    PPPP        |
 |     C     A  A     S    T    E      P           |
 |      CCC  A  A  SSS     T    EEEEE  P           |
 |                                                 |
 +-------------------------------------------------+
 |                                                 |
 | Welcome to Academic Release CASTEP version 24.1 |
 | Ab Initio Total Energy Program                  |
 |                                                 |
 | Authors:                                        |
 | M. Segall, M. Probert, C. Pickard, P. Hasnip,   |
 | S. Clark, K. Refson, J. R. Yates,               |
 | A. Bartok-Partay, M. Payne                      |
 |                                                 |
 | Contributors:                                   |
 | P. Lindan, P. Haynes, J. White, V. Milman,      |
 | N. Govind, M. Gibson, P. Tulip, V. Cocula,      |
 | B. Montanari, D. Quigley, M. Glover,            |
 | L. Bernasconi, A. Perlov, M. Plummer,           |
 | E. McNellis, J. Meyer, J. Gale, D. Jochym       |
 | J. Aarons, B. Walker, R. Gillen, D. Jones       |
 | T. Green, I. J. Bush, C. J. Armstrong,          |
 | E. J. Higgins, E. L. Brown, M. S. McFly,        |
 | J. Wilkins, B-C. Shih, P. J. P. Byrne,          |
 | R. J. Maurer, J. C. Womack, J. Dziedzic,        |
 | L. LeBlanc, T. K. Stenczel, J. Kermode,         |
 | S. Sturniolo, B. Shi, B. Durham, M. Evans,      |
 | M. J. Smith, A. Tamerus, Z. Hawkhead,           |
 | V. Ravindran, T. Hollins, S. A. Joyce,          |
 | R. T. Strong, A. M. Reilly, S. J. Donaldson     |
 |                                                 |
 | Copyright (c) 2000 - 2023                       |
 |                                                 |
 |     Distributed under license from Cambridge    |
 |     Enterprise for academic use only.           |
 |                                                 |
 | Please cite                                     |
 |                                                 |
 |     "First principles methods using CASTEP"     |
 |                                                 |
 |         Zeitschrift fuer Kristallographie       |
 |           220(5-6) pp. 567-570 (2005)           |
 |                                                 |
 | S. J. Clark, M. D. Segall, C. J. Pickard,       |
 | P. J. Hasnip, M. J. Probert, K. Refson,         |
 | M. C. Payne                                     |
 |                                                 |
 |       in all publications arising from          |
 |              your use of CASTEP                 |
 |                                                 |
 +-------------------------------------------------+
 |                                                 |
 |              http://www.castep.org              |
 |                                                 |
 +-------------------------------------------------+



 Compiled for  GNU 11.2.0 on 04-04-2024 18:39:17
 from code version 6355fd106 Castep241_branch Thu Mar 7 17:56:19 2024 +0000
 Compiler: GNU Fortran 11.2.0; Optimisation: FAST
 Comms   : MPI VERSION : CRAY MPICH version 8.1.23.14 (ANL base 3.4a2)
 MATHLIBS: default (LAPACK version 3.10.1)
 FFT Lib : fftw3 version commercial-fftw-3.3.10-sse2-avx-avx2-avx2_128
 Fundamental constants values: CODATA 2018

 Run started: Sun, 19 Jan 2025 01:29:39 +0000

 Atomic calculation performed for P: 1s2 2s2 2p6 3s2 3p3

 Converged in 47 iterations to an ae energy of -9309.074 eV

   ============================================================                
   | Pseudopotential Report - Date of generation 19-01-2025   |                
   ------------------------------------------------------------                
   | Element: P Ionic charge:  5.00 Level of theory: RSCAN    |                
   | Atomic Solver: Koelling-Harmon                           |                
   |                                                          |                
   |               Reference Electronic Structure             |                
   |         Orbital         Occupation         Energy        |                
   |            3s              2.000           -0.535        |                
   |            3p              3.000           -0.209        |                
   |                                                          |                
   |                 Pseudopotential Definition               |                
   |        Beta     l      e      Rc     scheme   norm       |                
   |          1      0   -0.535   1.807     qc      0         |                
   |          2      0    0.250   1.807     qc      0         |                
   |          3      1   -0.209   1.807     qc      0         |                
   |          4      1    0.250   1.807     qc      0         |                
   |          5      2    0.000   1.807     qc      0         |                
   |          6      2    0.250   1.807     qc      0         |                
   |         loc     3    0.000   1.807     pn      0         |                
   |                                                          |                
   | Augmentation charge Rinner = 1.263                       |                
   | Partial core correction Rc = 1.263                       |                
   ------------------------------------------------------------                
   | "3|1.8|4|4|5|30:31:32"                                   |                
   ------------------------------------------------------------                
   |      Author: Chris J. Pickard, Cambridge University      |                
   ============================================================                
 Warning: otfg_output_psp cannot write out meta-GGA pseudopotentials presently.

 Atomic calculation performed for In:
 1s2 2s2 2p6 3s2 3p6 3d10 4s2 4p6 4d10 5s2 5p1

 Converged in 84 iterations to an ae energy of -160093.328 eV

   ============================================================                
   | Pseudopotential Report - Date of generation 19-01-2025   |                
   ------------------------------------------------------------                
   | Element: In Ionic charge: 13.00 Level of theory: RSCAN   |                
   | Atomic Solver: Koelling-Harmon                           |                
   |                                                          |                
   |               Reference Electronic Structure             |                
   |         Orbital         Occupation         Energy        |                
   |            4d             10.000           -0.711        |                
   |            5s              2.000           -0.313        |                
   |            5p              1.000           -0.095        |                
   |                                                          |                
   |                 Pseudopotential Definition               |                
   |        Beta     l      e      Rc     scheme   norm       |                
   |          1      0   -0.313   2.501     qc      0         |                
   |          2      0    0.250   2.501     qc      0         |                
   |          3      1   -0.095   2.501     qc      0         |                
   |          4      1    0.250   2.501     qc      0         |                
   |          5      2   -0.711   2.207     qc      0         |                
   |          6      2    0.250   2.207     qc      0         |                
   |         loc     3    0.000   2.501     pn      0         |                
   |                                                          |                
   | Augmentation charge Rinner = 1.504                       |                
   | Partial core correction Rc = 1.504                       |                
   ------------------------------------------------------------                
   | "3|2.5|2.5|1.5|7|8|9|50:51:42U2.2U2.2"                   |                
   ------------------------------------------------------------                
   |      Author: Chris J. Pickard, Cambridge University      |                
   ============================================================                
 Warning: otfg_output_psp cannot write out meta-GGA pseudopotentials presently.

 Pseudo atomic calculation performed for P 3s2 3p3

 Converged in 23 iterations to a total energy of -208.0292 eV

 Pseudo atomic calculation performed for In 4d10 5s2 5p1

 Converged in 42 iterations to a total energy of -1747.4501 eV
 Calculation parallelised over 80 processes.
 Data is distributed by G-vector(2-way) and k-point(40-way)
 Each process may use up to 16 threads.

 ************************************ Title ************************************
 

 ***************************** General Parameters ******************************
  
 output verbosity                               : normal  (1)
 write checkpoint data to                       : StackingFaultStructs_001_100_1.check
 type of calculation                            : geometry optimization
 stress calculation                             : off
 density difference calculation                 : off
 electron localisation func (ELF) calculation   : off
 Hirshfeld analysis                             : on
 polarisation (Berry phase) analysis            : off
 molecular orbital projected DOS                : off
 deltaSCF calculation                           : off
 unlimited duration calculation
 timing information                             : on
 memory usage estimate                          : on
 write extra output files                       : on
 write final potential to formatted file        : off
 write final density to formatted file          : off
 write BibTeX reference list                    : on
 write OTFG pseudopotential files               : on
 write electrostatic potential file             : on
 write bands file                               : on
 checkpoint writing                             : off
  
 output         length unit                     : A
 output           mass unit                     : amu
 output           time unit                     : ps
 output         charge unit                     : e
 output           spin unit                     : hbar/2
 output         energy unit                     : eV
 output          force unit                     : eV/A
 output       velocity unit                     : A/ps
 output       pressure unit                     : GPa
 output     inv_length unit                     : 1/A
 output      frequency unit                     : cm-1
 output force constant unit                     : eV/A**2
 output         volume unit                     : A**3
 output   IR intensity unit                     : (D/A)**2/amu
 output         dipole unit                     : D
 output         efield unit                     : eV/A/e
 output        entropy unit                     : J/mol/K
 output    efield chi2 unit                     : pm/V
  
 wavefunctions paging                           : none
 random number generator seed                   :   12939888
 data distribution                              : optimal for this architecture
 optimization strategy                          : balance speed and memory

 *********************** Exchange-Correlation Parameters ***********************
  
 using functional                               : RSCAN
 relativistic treatment                         : Koelling-Harmon
 DFT+D: Semi-empirical dispersion correction    : off

 ************************* Pseudopotential Parameters **************************
  
 pseudopotential representation                 : reciprocal space
 <beta|phi> representation                      : reciprocal space
 spin-orbit coupling                            : off

 **************************** Basis Set Parameters *****************************
  
 plane wave basis set cut-off                   :   900.0000   eV
 size of standard grid                          :     2.0000
 size of   fine   gmax                          :    30.7390   1/A
 finite basis set correction                    : none

 **************************** Electronic Parameters ****************************
  
 number of  electrons                           :  216.0    
 net charge of system                           :  0.000    
 treating system as non-spin-polarized
 number of bands                                :        130

 ********************* Electronic Minimization Parameters **********************
  
 Method: Treating system as metallic with density mixing treatment of electrons,
         and number of  SD  steps               :          1
         and number of  CG  steps               :          4
  
 total energy / atom convergence tol.           : 0.1000E-07   eV
 eigen-energy convergence tolerance             : 0.2222E-08   eV
 max force / atom convergence tol.              : ignored
 convergence tolerance window                   :          3   cycles
 max. number of SCF cycles                      :         50
 number of fixed-spin iterations                :         10
 smearing scheme                                : Gaussian
 smearing width                                 : 0.2000       eV
 Fermi energy convergence tolerance             : 0.2721E-13   eV
 periodic dipole correction                     : NONE

 ************************** Density Mixing Parameters **************************
  
 density-mixing scheme                          : Pulay
 max. length of mixing history                  :         15
 charge density mixing amplitude                : 0.5000    
 cut-off energy for mixing                      :  900.0       eV

 *********************** Population Analysis Parameters ************************
  
 Population analysis with cutoff                :  3.000       A
 Population analysis output                     : summary and pdos components

 ********************** Geometry Optimization Parameters ***********************
  
 optimization method                            : LBFGS
 max. no. of LBFGS updates                      : unbounded
 preconditioned LBFGS is activated
 preconditioner type                            : EXP
     stabilization constant                     :     0.1000
     parameter A                                :     3.0000
     nearest neighbor distance                  : automatic
     cut-off distance                           : automatic
     parameter mu                               : automatic
 variable cell method                           : fixed basis quality
 max. number of steps                           :         30
 estimated bulk modulus                         :  500.0       GPa
 estimated <frequency>                          :  1668.       cm-1
 geom line minimiser                            : on
 with line minimiser tolerance                  :     0.4000
 total energy convergence tolerance             : 0.2000E-04   eV/atom
        max ionic |force| tolerance             : 0.1000E-02   eV/A
 max ionic |displacement| tolerance             : 0.1000E-02   A
   max |stress component| tolerance             : 0.1000       GPa
 convergence tolerance window                   :          2   steps
 backup results every                           :          5   steps
 write geom trajectory file                     : on

 *******************************************************************************
  

                           -------------------------------
                                      Unit Cell
                           -------------------------------
        Real Lattice(A)                      Reciprocal Lattice(1/A)
     5.9012740     0.0000000     0.0000000        1.064716756   0.000000000   0.000000000
     0.0000000     5.9012740     0.0000000        0.000000000   1.064716756  -0.044363186
     0.0000000     0.7376590    17.7038210        0.000000000   0.000000000   0.354905605

                       Lattice parameters(A)       Cell Angles
                    a =      5.901274          alpha =   87.614057
                    b =      5.901274          beta  =   90.000000
                    c =     17.719182          gamma =   90.000000

                       Current cell volume =           616.536183       A**3
                                   density =             2.837629   AMU/A**3
                                           =             4.711994     g/cm^3

                           -------------------------------
                                     Cell Contents
                           -------------------------------
                         Total number of ions in cell =   24
                      Total number of species in cell =    2
                        Max number of any one species =   12

            xxxxxxxxxxxxxxxxxxxxxxxxxxxxxxxxxxxxxxxxxxxxxxxxxxxxxxxxxxxx
            x  Element    Atom        Fractional coordinates of atoms  x
            x            Number           u          v          w      x
            x----------------------------------------------------------x
            x  P            1         0.250000   0.636318   0.909452   x 
            x  P            2         0.250000   0.156797   0.745627   x 
            x  P            3         0.750000   0.656797   0.745627   x 
            x  P            4         0.750000   0.136318   0.909452   x 
            x  P            5         0.750000   0.218372   0.253026   x 
            x  P            6         0.750000   0.697852   0.417180   x 
            x  P            7         0.750000   0.177327   0.581382   x 
            x  P            8         0.250000   0.718372   0.253026   x 
            x  P            9         0.250000   0.238977   0.088182   x 
            x  P           10         0.750000   0.738977   0.088182   x 
            x  P           11         0.250000   0.197852   0.417180   x 
            x  P           12         0.250000   0.677327   0.581382   x 
            x  In           1         0.000000   0.396425   0.828600   x 
            x  In           2         0.500000   0.416999   0.664008   x 
            x  In           3         0.500000  -0.103575   0.828600   x 
            x  In           4         0.500000  -0.021420   0.171361   x 
            x  In           5         0.500000   0.499234   0.006131   x 
            x  In           6         0.000000  -0.000766   0.006131   x 
            x  In           7         0.000000   0.478580   0.171361   x 
            x  In           8         0.000000  -0.083001   0.664008   x 
            x  In           9         0.500000  -0.062449   0.499594   x 
            x  In          10         0.500000   0.458068   0.335458   x 
            x  In          11         0.000000  -0.041932   0.335458   x 
            x  In          12         0.000000   0.437551   0.499594   x 
            xxxxxxxxxxxxxxxxxxxxxxxxxxxxxxxxxxxxxxxxxxxxxxxxxxxxxxxxxxxx


                         No user defined ionic velocities

                           -------------------------------
                                   Details of Species
                           -------------------------------

                               Mass of species in AMU
                                    P   30.9737600
                                    In  114.8180000

                          Electric Quadrupole Moment (Barn)
                                    P    1.0000000 No Isotope Defined
                                    In    0.7700000 Isotope115

                          Files used for pseudopotentials:
                                    P 3|1.8|4|4|5|30:31:32
                                    In 3|2.5|2.5|1.5|7|8|9|50:51:42U2.2U2.2

                           -------------------------------
                              k-Points For BZ Sampling
                           -------------------------------
                       MP grid size for SCF calculation is  6  6  2
                            with an offset of   0.083  0.083  0.250
                       Number of kpoints used =            40

                           -------------------------------
                               Symmetry and Constraints
                           -------------------------------

                      Cell is a supercell containing 2 primitive cells
                      Maximum deviation from symmetry =  0.00000         ANG

                      Number of symmetry operations   =           1
                      Number of ionic constraints     =          48
                      Point group of crystal =     1: C1, 1, 1
                      Space group of crystal =     1: P1, P 1

             Set iprint > 1 for details on symmetry rotations/translations

                         Centre of mass is NOT constrained
             Set iprint > 1 for details of linear ionic constraints

                         Number of cell constraints= 6
                         Cell constraints are:  0 0 0 0 0 0

                         External pressure/stress (GPa)
                          0.00000   0.00000   0.00000
                                    0.00000   0.00000
                                              0.00000
 
+---------------- MEMORY AND SCRATCH DISK ESTIMATES PER PROCESS --------------+
|                                                     Memory          Disk    |
| Baseline code, static data and system overhead      386.0 MB         0.0 MB |
| BLAS internal memory storage                          0.0 MB         0.0 MB |
| Model and support data                             2119.9 MB         0.0 MB |
| Electronic energy minimisation requirements         259.1 MB         0.0 MB |
| Force calculation requirements                       47.0 MB         0.0 MB |
|                                               ----------------------------- |
| Approx. total storage required per process         2765.1 MB         0.0 MB |
|                                                                             |
| Requirements will fluctuate during execution and may exceed these estimates |
+-----------------------------------------------------------------------------+
Calculating approximate eigenstates for fixed initial Hamiltonian
Cut-off for approx. calculation is   89.988 eV
Improving approx. states at cut-off of  450.000 eV
Resetting cut-off to  900.000 eV
Calculating total energy with cut-off of  900.000 eV.
------------------------------------------------------------------------ <-- SCF
SCF loop      Energy           Fermi           Energy gain       Timer   <-- SCF
                               energy          per atom          (sec)   <-- SCF
------------------------------------------------------------------------ <-- SCF
Initial  -2.36410190E+004  0.00000000E+000                        65.08  <-- SCF
      1  -2.35507649E+004  2.61809220E+000  -3.76058983E+000     103.01  <-- SCF
      2  -2.35508389E+004  2.61754989E+000   3.08200979E-003     131.18  <-- SCF
      3  -2.35754764E+004  2.95755520E+000   1.02656367E+000     164.03  <-- SCF
      4  -2.35799475E+004  3.03937586E+000   1.86296046E-001     203.49  <-- SCF
      5  -2.35773910E+004  3.38876259E+000  -1.06518825E-001     236.00  <-- SCF
      6  -2.35777595E+004  3.45027547E+000   1.53548012E-002     268.71  <-- SCF
      7  -2.35776417E+004  3.49975391E+000  -4.90961732E-003     307.44  <-- SCF
      8  -2.35782375E+004  3.54117557E+000   2.48239331E-002     341.30  <-- SCF
      9  -2.35782218E+004  3.50738386E+000  -6.54927752E-004     374.70  <-- SCF
     10  -2.35782323E+004  3.50837766E+000   4.37023781E-004     414.55  <-- SCF
     11  -2.35782386E+004  3.50338618E+000   2.63222070E-004     447.59  <-- SCF
     12  -2.35782389E+004  3.50510821E+000   1.23302696E-005     483.01  <-- SCF
     13  -2.35782391E+004  3.50645739E+000   8.12367749E-006     518.21  <-- SCF
     14  -2.35782391E+004  3.50610593E+000   4.39958131E-009     550.87  <-- SCF
     15  -2.35782391E+004  3.50611797E+000  -3.02783795E-009     578.23  <-- SCF
------------------------------------------------------------------------ <-- SCF
 
Final energy, E             =  -23578.23882987     eV
Final free energy (E-TS)    =  -23578.23906914     eV
(energies not corrected for finite basis set)
 
NB est. 0K energy (E-0.5TS)      =  -23578.23894950     eV
 
 
+---------------- MEMORY AND SCRATCH DISK ESTIMATES PER PROCESS --------------+
|                                                     Memory          Disk    |
| Model and support data                             1265.3 MB         0.0 MB |
| Electronic energy minimisation requirements         259.1 MB         0.0 MB |
| Geometry minimisation requirements                  302.3 MB         0.0 MB |
|                                               ----------------------------- |
| Approx. total storage required per process         1826.7 MB         0.0 MB |
|                                                                             |
| Requirements will fluctuate during execution and may exceed these estimates |
+-----------------------------------------------------------------------------+
 

 ******************************** Constrained Forces ********************************
 *                                                                                  *
 *                           Cartesian components (eV/A)                            *
 * -------------------------------------------------------------------------------- *
 *                         x                    y                    z              *
 *                                                                                  *
 * P               1      0.00000(cons'd)      0.00000(cons'd)     -0.00739         *
 * P               2     -0.00000(cons'd)      0.00000(cons'd)      0.01328         *
 * P               3     -0.00000(cons'd)      0.00000(cons'd)      0.01327         *
 * P               4      0.00000(cons'd)     -0.00000(cons'd)     -0.00739         *
 * P               5      0.00000(cons'd)      0.00000(cons'd)     -0.02920         *
 * P               6     -0.00000(cons'd)      0.00000(cons'd)     -0.02560         *
 * P               7     -0.00000(cons'd)     -0.00000(cons'd)     -0.02239         *
 * P               8      0.00000(cons'd)      0.00000(cons'd)     -0.02921         *
 * P               9      0.00000(cons'd)      0.00000(cons'd)      0.01188         *
 * P              10     -0.00000(cons'd)      0.00000(cons'd)      0.01189         *
 * P              11      0.00000(cons'd)      0.00000(cons'd)     -0.02560         *
 * P              12      0.00000(cons'd)     -0.00000(cons'd)     -0.02239         *
 * In              1      0.00000(cons'd)     -0.00000(cons'd)     -0.01479         *
 * In              2      0.00000(cons'd)      0.00000(cons'd)      0.00126         *
 * In              3      0.00000(cons'd)      0.00000(cons'd)     -0.01480         *
 * In              4      0.00000(cons'd)      0.00000(cons'd)     -0.01426         *
 * In              5      0.00000(cons'd)      0.00000(cons'd)      0.01709         *
 * In              6      0.00000(cons'd)      0.00000(cons'd)      0.01709         *
 * In              7      0.00000(cons'd)      0.00000(cons'd)     -0.01426         *
 * In              8      0.00000(cons'd)      0.00000(cons'd)      0.00126         *
 * In              9      0.00000(cons'd)      0.00000(cons'd)      0.04120         *
 * In             10      0.00000(cons'd)      0.00000(cons'd)      0.02894         *
 * In             11      0.00000(cons'd)      0.00000(cons'd)      0.02894         *
 * In             12      0.00000(cons'd)      0.00000(cons'd)      0.04120         *
 *                                                                                  *
 ************************************************************************************
 EXP precond LBFGS => estimated nearest neighbor distance :  2.542       A
 EXP precond LBFGS => estimated cutoff distance :  5.085       A

 ************************************** Forces **************************************
 *                                                                                  *
 *                           Cartesian components (eV/A)                            *
 * -------------------------------------------------------------------------------- *
 *                         x                    y                    z              *
 *                                                                                  *
 * P               1     -0.78726(cons'd)      1.59487(cons'd)     -0.00739         *
 * P               2      0.14094(cons'd)      0.07618(cons'd)      0.01328         *
 * P               3      0.14094(cons'd)      0.07618(cons'd)      0.01327         *
 * P               4     -0.78726(cons'd)      1.59487(cons'd)     -0.00739         *
 * P               5      0.01267(cons'd)     -0.04570(cons'd)     -0.02920         *
 * P               6      0.00488(cons'd)     -0.00975(cons'd)     -0.02560         *
 * P               7      0.01919(cons'd)      0.00512(cons'd)     -0.02239         *
 * P               8      0.01267(cons'd)     -0.04570(cons'd)     -0.02921         *
 * P               9      0.08412(cons'd)     -0.35285(cons'd)      0.01188         *
 * P              10      0.08412(cons'd)     -0.35285(cons'd)      0.01189         *
 * P              11      0.00487(cons'd)     -0.00975(cons'd)     -0.02560         *
 * P              12      0.01920(cons'd)      0.00512(cons'd)     -0.02239         *
 * In              1     -0.14222(cons'd)     -0.18659(cons'd)     -0.01479         *
 * In              2     -0.01791(cons'd)     -0.03405(cons'd)      0.00126         *
 * In              3     -0.14222(cons'd)     -0.18658(cons'd)     -0.01480         *
 * In              4     -0.11695(cons'd)      0.00400(cons'd)     -0.01426         *
 * In              5      0.82617(cons'd)     -1.04481(cons'd)      0.01709         *
 * In              6      0.82617(cons'd)     -1.04481(cons'd)      0.01709         *
 * In              7     -0.11695(cons'd)      0.00400(cons'd)     -0.01426         *
 * In              8     -0.01791(cons'd)     -0.03405(cons'd)      0.00126         *
 * In              9     -0.00607(cons'd)     -0.00524(cons'd)      0.04120         *
 * In             10     -0.01756(cons'd)     -0.00118(cons'd)      0.02894         *
 * In             11     -0.01756(cons'd)     -0.00118(cons'd)      0.02894         *
 * In             12     -0.00607(cons'd)     -0.00524(cons'd)      0.04120         *
 *                                                                                  *
 ************************************************************************************
 doing test perturbation to get energy scale for EXP preconditioner

                           -------------------------------
                                     Cell Contents
                           -------------------------------

            xxxxxxxxxxxxxxxxxxxxxxxxxxxxxxxxxxxxxxxxxxxxxxxxxxxxxxxxxxxxxxxxx
            x  Element         Atom        Fractional coordinates of atoms  x
            x                 Number           u          v          w      x
            x---------------------------------------------------------------x
            x  P                 1         0.251409   0.639792   0.910666   x
            x  P                 2         0.251409   0.158074   0.746682   x
            x  P                 3         0.753625   0.660290   0.746682   x
            x  P                 4         0.753625   0.137576   0.910666   x
            x  P                 5         0.753625   0.219732   0.253423   x
            x  P                 6         0.753625   0.701398   0.417820   x
            x  P                 7         0.753625   0.178629   0.582243   x
            x  P                 8         0.251409   0.721947   0.253423   x
            x  P                 9         0.251409   0.240369   0.088322   x
            x  P                10         0.753625   0.742585   0.088322   x
            x  P                11         0.251409   0.199182   0.417820   x
            x  P                12         0.251409   0.680845   0.582243   x
            x  In                1         0.000000   0.398947   0.829740   x
            x  In                2         0.502664   0.419543   0.664971   x
            x  In                3         0.502664   0.900470   0.829740   x
            x  In                4         0.502664   0.982733   0.171632   x
            x  In                5         0.502664   0.501896   0.006140   x
            x  In                6         0.000000   1.003420   0.006140   x
            x  In                7         0.000000   0.481210   0.171632   x
            x  In                8         0.000000   0.921066   0.664971   x
            x  In                9         0.502664   0.941644   0.500348   x
            x  In               10         0.502664   0.460667   0.335979   x
            x  In               11         0.000000   0.962190   0.335979   x
            x  In               12         0.000000   0.440120   0.500348   x
            xxxxxxxxxxxxxxxxxxxxxxxxxxxxxxxxxxxxxxxxxxxxxxxxxxxxxxxxxxxxxxxxx


------------------------------------------------------------------------ <-- SCF
SCF loop      Energy           Fermi           Energy gain       Timer   <-- SCF
                               energy          per atom          (sec)   <-- SCF
------------------------------------------------------------------------ <-- SCF
Initial  -2.35769350E+004  0.00000000E+000                       620.02  <-- SCF
      1  -2.35780364E+004  3.49987067E+000   4.58897703E-002     653.33  <-- SCF
      2  -2.35781927E+004  3.49978070E+000   6.51321291E-003     692.07  <-- SCF
      3  -2.35781940E+004  3.49952734E+000   5.39560899E-005     725.68  <-- SCF
      4  -2.35781950E+004  3.49949670E+000   4.28861360E-005     760.26  <-- SCF
      5  -2.35781951E+004  3.49943986E+000   4.53675822E-006     799.01  <-- SCF
      6  -2.35781952E+004  3.49930804E+000   1.07802593E-006     834.42  <-- SCF
      7  -2.35781952E+004  3.49919728E+000  -1.44519002E-008     866.81  <-- SCF
      8  -2.35781952E+004  3.49910381E+000  -5.38545256E-008     896.01  <-- SCF
      9  -2.35781952E+004  3.49904219E+000  -2.29245616E-008     923.12  <-- SCF
     10  -2.35781952E+004  3.49899691E+000  -3.35537036E-009     949.83  <-- SCF
     11  -2.35781952E+004  3.49898629E+000   6.25418039E-010     972.72  <-- SCF
------------------------------------------------------------------------ <-- SCF
 
Final energy, E             =  -23578.19495897     eV
Final free energy (E-TS)    =  -23578.19515703     eV
(energies not corrected for finite basis set)
 
NB est. 0K energy (E-0.5TS)      =  -23578.19505800     eV
 

 ************************************** Forces **************************************
 *                                                                                  *
 *                           Cartesian components (eV/A)                            *
 * -------------------------------------------------------------------------------- *
 *                         x                    y                    z              *
 *                                                                                  *
 * P               1     -0.84093(cons'd)      1.60407(cons'd)     -0.15421         *
 * P               2      0.16569(cons'd)      0.19628(cons'd)      0.01377         *
 * P               3      0.00833(cons'd)      0.03188(cons'd)      0.01752         *
 * P               4     -1.06454(cons'd)      1.73464(cons'd)     -0.29859         *
 * P               5     -0.12256(cons'd)      0.08008(cons'd)     -0.03091         *
 * P               6     -0.12998(cons'd)     -0.04461(cons'd)     -0.01986         *
 * P               7     -0.11522(cons'd)      0.12879(cons'd)     -0.02156         *
 * P               8      0.03778(cons'd)     -0.08380(cons'd)     -0.02822         *
 * P               9      0.10713(cons'd)     -0.24507(cons'd)      0.01741         *
 * P              10     -0.03789(cons'd)     -0.40665(cons'd)      0.03322         *
 * P              11      0.03129(cons'd)      0.11421(cons'd)     -0.02184         *
 * P              12      0.04372(cons'd)     -0.02977(cons'd)     -0.01946         *
 * In              1      0.01434(cons'd)     -0.15772(cons'd)     -0.03821         *
 * In              2     -0.07237(cons'd)     -0.01551(cons'd)     -0.00137         *
 * In              3     -0.19928(cons'd)     -0.28492(cons'd)     -0.03226         *
 * In              4     -0.17348(cons'd)     -0.10069(cons'd)     -0.01789         *
 * In              5      0.85011(cons'd)     -1.06714(cons'd)      0.17711         *
 * In              6      1.13956(cons'd)     -1.16305(cons'd)      0.32219         *
 * In              7      0.03950(cons'd)      0.02919(cons'd)     -0.01871         *
 * In              8      0.14684(cons'd)     -0.13715(cons'd)     -0.00248         *
 * In              9     -0.06094(cons'd)     -0.11043(cons'd)      0.03619         *
 * In             10     -0.07127(cons'd)      0.01803(cons'd)      0.02545         *
 * In             11      0.14718(cons'd)     -0.10639(cons'd)      0.02617         *
 * In             12      0.15700(cons'd)      0.01573(cons'd)      0.03654         *
 *                                                                                  *
 ************************************************************************************
 EXP precond LBFGS => estimated parameter mu :  2.476       eV/A**2
 LBFGS: finished iteration     0 with enthalpy= -2.35782391E+004 eV
  
 +-----------+-----------------+-----------------+------------+-----+ <-- LBFGS
 | Parameter |      value      |    tolerance    |    units   | OK? | <-- LBFGS
 +-----------+-----------------+-----------------+------------+-----+ <-- LBFGS
 |  dE/ion   |   0.000000E+000 |   2.000000E-005 |         eV | No  | <-- LBFGS
 |  |F|max   |   2.057028E+000 |   1.000000E-003 |       eV/A | No  | <-- LBFGS
 |  |dR|max  |   2.408652E-015 |   1.000000E-003 |          A | No  | <-- LBFGS
 +-----------+-----------------+-----------------+------------+-----+ <-- LBFGS
  

================================================================================
 Starting LBFGS iteration          1 ...
================================================================================
  
 +------------+-------------+-------------+-----------------+ <-- min LBFGS
 |    Step    |   lambda    |   F.delta'  |    enthalpy     | <-- min LBFGS
 +------------+-------------+-------------+-----------------+ <-- min LBFGS
 |  previous  |    0.000000 |    0.062725 |   -23578.239069 | <-- min LBFGS
 +------------+-------------+-------------+-----------------+ <-- min LBFGS
  

--------------------------------------------------------------------------------
 LBFGS: starting iteration         1 with trial guess (lambda=  1.000000)
--------------------------------------------------------------------------------

                           -------------------------------
                                     Cell Contents
                           -------------------------------

            xxxxxxxxxxxxxxxxxxxxxxxxxxxxxxxxxxxxxxxxxxxxxxxxxxxxxxxxxxxxxxxxx
            x  Element         Atom        Fractional coordinates of atoms  x
            x                 Number           u          v          w      x
            x---------------------------------------------------------------x
            x  P                 1         0.250000   0.636322   0.909424   x
            x  P                 2         0.250000   0.156790   0.745677   x
            x  P                 3         0.750000   0.656790   0.745677   x
            x  P                 4         0.750000   0.136322   0.909424   x
            x  P                 5         0.750000   0.218390   0.252879   x
            x  P                 6         0.750000   0.697857   0.417140   x
            x  P                 7         0.750000   0.177331   0.581354   x
            x  P                 8         0.250000   0.718390   0.252879   x
            x  P                 9         0.250000   0.238973   0.088215   x
            x  P                10         0.750000   0.738973   0.088215   x
            x  P                11         0.250000   0.197857   0.417140   x
            x  P                12         0.250000   0.677331   0.581354   x
            x  In                1         0.000000   0.396432   0.828546   x
            x  In                2         0.500000   0.416996   0.664028   x
            x  In                3         0.500000  -0.103568   0.828546   x
            x  In                4         0.500000  -0.021407   0.171254   x
            x  In                5         0.500000   0.499224   0.006204   x
            x  In                6         0.000000  -0.000776   0.006204   x
            x  In                7         0.000000   0.478593   0.171254   x
            x  In                8         0.000000  -0.083004   0.664028   x
            x  In                9         0.500000  -0.062470   0.499758   x
            x  In               10         0.500000   0.458060   0.335520   x
            x  In               11         0.000000  -0.041940   0.335520   x
            x  In               12         0.000000   0.437530   0.499758   x
            xxxxxxxxxxxxxxxxxxxxxxxxxxxxxxxxxxxxxxxxxxxxxxxxxxxxxxxxxxxxxxxxx


------------------------------------------------------------------------ <-- SCF
SCF loop      Energy           Fermi           Energy gain       Timer   <-- SCF
                               energy          per atom          (sec)   <-- SCF
------------------------------------------------------------------------ <-- SCF
Initial  -2.35767170E+004  0.00000000E+000                       996.43  <-- SCF
      1  -2.35780826E+004  3.50551826E+000   5.69028887E-002    1029.22  <-- SCF
      2  -2.35782369E+004  3.50542757E+000   6.42554434E-003    1067.86  <-- SCF
      3  -2.35782382E+004  3.50618214E+000   5.61786829E-005    1102.03  <-- SCF
      4  -2.35782393E+004  3.50649997E+000   4.50598330E-005    1137.72  <-- SCF
      5  -2.35782394E+004  3.50648178E+000   4.88301463E-006    1179.82  <-- SCF
      6  -2.35782394E+004  3.50657066E+000   1.09668896E-006    1220.86  <-- SCF
      7  -2.35782394E+004  3.50667479E+000   6.54890799E-008    1253.53  <-- SCF
      8  -2.35782394E+004  3.50675744E+000  -7.09099282E-009    1282.84  <-- SCF
      9  -2.35782394E+004  3.50680165E+000  -6.32520375E-009    1308.20  <-- SCF
     10  -2.35782394E+004  3.50684348E+000  -2.77506697E-009    1334.24  <-- SCF
     11  -2.35782394E+004  3.50686161E+000  -1.33797181E-010    1360.31  <-- SCF
------------------------------------------------------------------------ <-- SCF
 
Final energy, E             =  -23578.23919295     eV
Final free energy (E-TS)    =  -23578.23943401     eV
(energies not corrected for finite basis set)
 
NB est. 0K energy (E-0.5TS)      =  -23578.23931348     eV
 

 ******************************** Constrained Forces ********************************
 *                                                                                  *
 *                           Cartesian components (eV/A)                            *
 * -------------------------------------------------------------------------------- *
 *                         x                    y                    z              *
 *                                                                                  *
 * P               1      0.00000(cons'd)      0.00000(cons'd)      0.00157         *
 * P               2      0.00000(cons'd)      0.00000(cons'd)     -0.00262         *
 * P               3     -0.00000(cons'd)      0.00000(cons'd)     -0.00262         *
 * P               4      0.00000(cons'd)      0.00000(cons'd)      0.00157         *
 * P               5     -0.00000(cons'd)      0.00000(cons'd)     -0.00596         *
 * P               6      0.00000(cons'd)      0.00000(cons'd)     -0.00061         *
 * P               7     -0.00000(cons'd)     -0.00000(cons'd)     -0.00192         *
 * P               8     -0.00000(cons'd)      0.00000(cons'd)     -0.00595         *
 * P               9      0.00000(cons'd)      0.00000(cons'd)     -0.00064         *
 * P              10     -0.00000(cons'd)      0.00000(cons'd)     -0.00065         *
 * P              11      0.00000(cons'd)      0.00000(cons'd)     -0.00061         *
 * P              12      0.00000(cons'd)      0.00000(cons'd)     -0.00192         *
 * In              1      0.00000(cons'd)      0.00000(cons'd)      0.00209         *
 * In              2      0.00000(cons'd)      0.00000(cons'd)      0.00289         *
 * In              3      0.00000(cons'd)      0.00000(cons'd)      0.00209         *
 * In              4      0.00000(cons'd)      0.00000(cons'd)      0.00137         *
 * In              5      0.00000(cons'd)      0.00000(cons'd)     -0.00101         *
 * In              6      0.00000(cons'd)      0.00000(cons'd)     -0.00099         *
 * In              7      0.00000(cons'd)      0.00000(cons'd)      0.00137         *
 * In              8      0.00000(cons'd)      0.00000(cons'd)      0.00288         *
 * In              9      0.00000(cons'd)      0.00000(cons'd)      0.00331         *
 * In             10      0.00000(cons'd)      0.00000(cons'd)      0.00154         *
 * In             11      0.00000(cons'd)      0.00000(cons'd)      0.00153         *
 * In             12      0.00000(cons'd)     -0.00000(cons'd)      0.00331         *
 *                                                                                  *
 ************************************************************************************
  
 +------------+-------------+-------------+-----------------+ <-- min LBFGS
 |    Step    |   lambda    |   F.delta'  |    enthalpy     | <-- min LBFGS
 +------------+-------------+-------------+-----------------+ <-- min LBFGS
 |  previous  |    0.000000 |    0.062725 |   -23578.239069 | <-- min LBFGS
 | trial step |    1.000000 |    0.003623 |   -23578.239434 | <-- min LBFGS
 +------------+-------------+-------------+-----------------+ <-- min LBFGS
  
 LBFGS: finished iteration     1 with enthalpy= -2.35782394E+004 eV
  
 +-----------+-----------------+-----------------+------------+-----+ <-- LBFGS
 | Parameter |      value      |    tolerance    |    units   | OK? | <-- LBFGS
 +-----------+-----------------+-----------------+------------+-----+ <-- LBFGS
 |  dE/ion   |   1.520296E-005 |   2.000000E-005 |         eV | Yes | <-- LBFGS
 |  |F|max   |   5.955174E-003 |   1.000000E-003 |       eV/A | No  | <-- LBFGS
 |  |dR|max  |   2.911886E-003 |   1.000000E-003 |          A | No  | <-- LBFGS
 +-----------+-----------------+-----------------+------------+-----+ <-- LBFGS
  

================================================================================
 Starting LBFGS iteration          2 ...
================================================================================
  
 +------------+-------------+-------------+-----------------+ <-- min LBFGS
 |    Step    |   lambda    |   F.delta'  |    enthalpy     | <-- min LBFGS
 +------------+-------------+-------------+-----------------+ <-- min LBFGS
 |  previous  |    0.000000 |    0.005746 |   -23578.239434 | <-- min LBFGS
 +------------+-------------+-------------+-----------------+ <-- min LBFGS
  

--------------------------------------------------------------------------------
 LBFGS: starting iteration         2 with trial guess (lambda=  1.000000)
--------------------------------------------------------------------------------

                           -------------------------------
                                     Cell Contents
                           -------------------------------

            xxxxxxxxxxxxxxxxxxxxxxxxxxxxxxxxxxxxxxxxxxxxxxxxxxxxxxxxxxxxxxxxx
            x  Element         Atom        Fractional coordinates of atoms  x
            x                 Number           u          v          w      x
            x---------------------------------------------------------------x
            x  P                 1         0.250000   0.636320   0.909437   x
            x  P                 2         0.250000   0.156790   0.745683   x
            x  P                 3         0.750000   0.656790   0.745683   x
            x  P                 4         0.750000   0.136320   0.909437   x
            x  P                 5         0.750000   0.218395   0.252837   x
            x  P                 6         0.750000   0.697858   0.417139   x
            x  P                 7         0.750000   0.177330   0.581361   x
            x  P                 8         0.250000   0.718395   0.252837   x
            x  P                 9         0.250000   0.238975   0.088201   x
            x  P                10         0.750000   0.738975   0.088201   x
            x  P                11         0.250000   0.197858   0.417139   x
            x  P                12         0.250000   0.677330   0.581361   x
            x  In                1         0.000000   0.396430   0.828564   x
            x  In                2         0.500000   0.416994   0.664050   x
            x  In                3         0.500000  -0.103570   0.828564   x
            x  In                4         0.500000  -0.021405   0.171236   x
            x  In                5         0.500000   0.499225   0.006199   x
            x  In                6         0.000000  -0.000775   0.006199   x
            x  In                7         0.000000   0.478595   0.171236   x
            x  In                8         0.000000  -0.083006   0.664050   x
            x  In                9         0.500000  -0.062472   0.499780   x
            x  In               10         0.500000   0.458061   0.335512   x
            x  In               11         0.000000  -0.041939   0.335512   x
            x  In               12         0.000000   0.437528   0.499780   x
            xxxxxxxxxxxxxxxxxxxxxxxxxxxxxxxxxxxxxxxxxxxxxxxxxxxxxxxxxxxxxxxxx


------------------------------------------------------------------------ <-- SCF
SCF loop      Energy           Fermi           Energy gain       Timer   <-- SCF
                               energy          per atom          (sec)   <-- SCF
------------------------------------------------------------------------ <-- SCF
Initial  -2.35782389E+004  0.00000000E+000                      1385.64  <-- SCF
      1  -2.35782394E+004  3.50671140E+000   2.14797614E-005    1420.02  <-- SCF
      2  -2.35782394E+004  3.50671139E+000   8.06390328E-007    1460.54  <-- SCF
      3  -2.35782394E+004  3.50668917E+000   3.31077130E-009    1486.53  <-- SCF
      4  -2.35782394E+004  3.50666471E+000   3.36606897E-009    1513.22  <-- SCF
------------------------------------------------------------------------ <-- SCF
 
Final energy, E             =  -23578.23920150     eV
Final free energy (E-TS)    =  -23578.23944142     eV
(energies not corrected for finite basis set)
 
NB est. 0K energy (E-0.5TS)      =  -23578.23932146     eV
 

 ******************************** Constrained Forces ********************************
 *                                                                                  *
 *                           Cartesian components (eV/A)                            *
 * -------------------------------------------------------------------------------- *
 *                         x                    y                    z              *
 *                                                                                  *
 * P               1      0.00000(cons'd)      0.00000(cons'd)     -0.00038         *
 * P               2     -0.00000(cons'd)      0.00000(cons'd)     -0.00016         *
 * P               3     -0.00000(cons'd)     -0.00000(cons'd)     -0.00016         *
 * P               4      0.00000(cons'd)     -0.00000(cons'd)     -0.00038         *
 * P               5     -0.00000(cons'd)      0.00000(cons'd)     -0.00077         *
 * P               6     -0.00000(cons'd)      0.00000(cons'd)      0.00004         *
 * P               7      0.00000(cons'd)     -0.00000(cons'd)      0.00030         *
 * P               8      0.00000(cons'd)      0.00000(cons'd)     -0.00077         *
 * P               9      0.00000(cons'd)      0.00000(cons'd)     -0.00064         *
 * P              10     -0.00000(cons'd)      0.00000(cons'd)     -0.00064         *
 * P              11      0.00000(cons'd)      0.00000(cons'd)      0.00004         *
 * P              12      0.00000(cons'd)     -0.00000(cons'd)      0.00030         *
 * In              1      0.00000(cons'd)      0.00000(cons'd)     -0.00002         *
 * In              2      0.00000(cons'd)      0.00000(cons'd)     -0.00031         *
 * In              3      0.00000(cons'd)      0.00000(cons'd)     -0.00002         *
 * In              4      0.00000(cons'd)      0.00000(cons'd)      0.00115         *
 * In              5      0.00000(cons'd)      0.00000(cons'd)      0.00151         *
 * In              6      0.00000(cons'd)      0.00000(cons'd)      0.00149         *
 * In              7      0.00000(cons'd)      0.00000(cons'd)      0.00115         *
 * In              8      0.00000(cons'd)      0.00000(cons'd)     -0.00031         *
 * In              9      0.00000(cons'd)      0.00000(cons'd)     -0.00088         *
 * In             10      0.00000(cons'd)      0.00000(cons'd)      0.00017         *
 * In             11      0.00000(cons'd)      0.00000(cons'd)      0.00017         *
 * In             12      0.00000(cons'd)      0.00000(cons'd)     -0.00088         *
 *                                                                                  *
 ************************************************************************************
  
 +------------+-------------+-------------+-----------------+ <-- min LBFGS
 |    Step    |   lambda    |   F.delta'  |    enthalpy     | <-- min LBFGS
 +------------+-------------+-------------+-----------------+ <-- min LBFGS
 |  previous  |    0.000000 |    0.005746 |   -23578.239434 | <-- min LBFGS
 | trial step |    1.000000 |   -0.000285 |   -23578.239441 | <-- min LBFGS
 +------------+-------------+-------------+-----------------+ <-- min LBFGS
  
 LBFGS: finished iteration     2 with enthalpy= -2.35782394E+004 eV
  
 +-----------+-----------------+-----------------+------------+-----+ <-- LBFGS
 | Parameter |      value      |    tolerance    |    units   | OK? | <-- LBFGS
 +-----------+-----------------+-----------------+------------+-----+ <-- LBFGS
 |  dE/ion   |   3.084081E-007 |   2.000000E-005 |         eV | Yes | <-- LBFGS
 |  |F|max   |   1.507064E-003 |   1.000000E-003 |       eV/A | No  | <-- LBFGS
 |  |dR|max  |   7.435366E-004 |   1.000000E-003 |          A | Yes | <-- LBFGS
 +-----------+-----------------+-----------------+------------+-----+ <-- LBFGS
  

================================================================================
 Starting LBFGS iteration          3 ...
================================================================================
  
 +------------+-------------+-------------+-----------------+ <-- min LBFGS
 |    Step    |   lambda    |   F.delta'  |    enthalpy     | <-- min LBFGS
 +------------+-------------+-------------+-----------------+ <-- min LBFGS
 |  previous  |    0.000000 |    0.001551 |   -23578.239441 | <-- min LBFGS
 +------------+-------------+-------------+-----------------+ <-- min LBFGS
  

--------------------------------------------------------------------------------
 LBFGS: starting iteration         3 with trial guess (lambda=  1.000000)
--------------------------------------------------------------------------------

                           -------------------------------
                                     Cell Contents
                           -------------------------------

            xxxxxxxxxxxxxxxxxxxxxxxxxxxxxxxxxxxxxxxxxxxxxxxxxxxxxxxxxxxxxxxxx
            x  Element         Atom        Fractional coordinates of atoms  x
            x                 Number           u          v          w      x
            x---------------------------------------------------------------x
            x  P                 1         0.250000   0.636320   0.909440   x
            x  P                 2         0.250000   0.156790   0.745681   x
            x  P                 3         0.750000   0.656790   0.745681   x
            x  P                 4         0.750000   0.136320   0.909440   x
            x  P                 5         0.750000   0.218396   0.252834   x
            x  P                 6         0.750000   0.697858   0.417135   x
            x  P                 7         0.750000   0.177330   0.581358   x
            x  P                 8         0.250000   0.718396   0.252834   x
            x  P                 9         0.250000   0.238974   0.088204   x
            x  P                10         0.750000   0.738974   0.088204   x
            x  P                11         0.250000   0.197858   0.417135   x
            x  P                12         0.250000   0.677330   0.581358   x
            x  In                1         0.000000   0.396429   0.828565   x
            x  In                2         0.500000   0.416994   0.664047   x
            x  In                3         0.500000  -0.103571   0.828565   x
            x  In                4         0.500000  -0.021405   0.171242   x
            x  In                5         0.500000   0.499224   0.006208   x
            x  In                6         0.000000  -0.000776   0.006208   x
            x  In                7         0.000000   0.478595   0.171242   x
            x  In                8         0.000000  -0.083006   0.664047   x
            x  In                9         0.500000  -0.062472   0.499774   x
            x  In               10         0.500000   0.458061   0.335511   x
            x  In               11         0.000000  -0.041939   0.335511   x
            x  In               12         0.000000   0.437528   0.499774   x
            xxxxxxxxxxxxxxxxxxxxxxxxxxxxxxxxxxxxxxxxxxxxxxxxxxxxxxxxxxxxxxxxx


------------------------------------------------------------------------ <-- SCF
SCF loop      Energy           Fermi           Energy gain       Timer   <-- SCF
                               energy          per atom          (sec)   <-- SCF
------------------------------------------------------------------------ <-- SCF
Initial  -2.35782394E+004  0.00000000E+000                      1538.54  <-- SCF
      1  -2.35782394E+004  3.50672701E+000   3.00735912E-006    1573.75  <-- SCF
      2  -2.35782394E+004  3.50672701E+000   7.76844739E-008    1606.03  <-- SCF
      3  -2.35782394E+004  3.50673769E+000   1.60479278E-009    1630.42  <-- SCF
      4  -2.35782394E+004  3.50675128E+000   5.82623565E-010    1654.37  <-- SCF
------------------------------------------------------------------------ <-- SCF
 
Final energy, E             =  -23578.23920122     eV
Final free energy (E-TS)    =  -23578.23944137     eV
(energies not corrected for finite basis set)
 
NB est. 0K energy (E-0.5TS)      =  -23578.23932130     eV
 

 ******************************** Constrained Forces ********************************
 *                                                                                  *
 *                           Cartesian components (eV/A)                            *
 * -------------------------------------------------------------------------------- *
 *                         x                    y                    z              *
 *                                                                                  *
 * P               1      0.00000(cons'd)     -0.00000(cons'd)     -0.00027         *
 * P               2      0.00000(cons'd)     -0.00000(cons'd)     -0.00023         *
 * P               3      0.00000(cons'd)      0.00000(cons'd)     -0.00023         *
 * P               4      0.00000(cons'd)      0.00000(cons'd)     -0.00027         *
 * P               5      0.00000(cons'd)      0.00000(cons'd)      0.00064         *
 * P               6      0.00000(cons'd)      0.00000(cons'd)     -0.00018         *
 * P               7     -0.00000(cons'd)     -0.00000(cons'd)     -0.00021         *
 * P               8      0.00000(cons'd)      0.00000(cons'd)      0.00064         *
 * P               9     -0.00000(cons'd)      0.00000(cons'd)      0.00006         *
 * P              10     -0.00000(cons'd)      0.00000(cons'd)      0.00006         *
 * P              11     -0.00000(cons'd)      0.00000(cons'd)     -0.00018         *
 * P              12     -0.00000(cons'd)     -0.00000(cons'd)     -0.00021         *
 * In              1      0.00000(cons'd)      0.00000(cons'd)      0.00055         *
 * In              2      0.00000(cons'd)      0.00000(cons'd)      0.00087         *
 * In              3      0.00000(cons'd)     -0.00000(cons'd)      0.00055         *
 * In              4      0.00000(cons'd)      0.00000(cons'd)     -0.00111         *
 * In              5      0.00000(cons'd)      0.00000(cons'd)     -0.00077         *
 * In              6      0.00000(cons'd)      0.00000(cons'd)     -0.00077         *
 * In              7      0.00000(cons'd)      0.00000(cons'd)     -0.00111         *
 * In              8      0.00000(cons'd)      0.00000(cons'd)      0.00087         *
 * In              9      0.00000(cons'd)      0.00000(cons'd)      0.00095         *
 * In             10      0.00000(cons'd)      0.00000(cons'd)     -0.00031         *
 * In             11      0.00000(cons'd)      0.00000(cons'd)     -0.00031         *
 * In             12      0.00000(cons'd)      0.00000(cons'd)      0.00095         *
 *                                                                                  *
 ************************************************************************************
  
 +------------+-------------+-------------+-----------------+ <-- min LBFGS
 |    Step    |   lambda    |   F.delta'  |    enthalpy     | <-- min LBFGS
 +------------+-------------+-------------+-----------------+ <-- min LBFGS
 |  previous  |    0.000000 |    0.001551 |   -23578.239441 | <-- min LBFGS
 | trial step |    1.000000 |   -0.001328 |   -23578.239441 | <-- min LBFGS
 +------------+-------------+-------------+-----------------+ <-- min LBFGS
  

--------------------------------------------------------------------------------
 LBFGS: improving iteration         3 with line minimization (lambda=  0.538721)
--------------------------------------------------------------------------------

                           -------------------------------
                                     Cell Contents
                           -------------------------------

            xxxxxxxxxxxxxxxxxxxxxxxxxxxxxxxxxxxxxxxxxxxxxxxxxxxxxxxxxxxxxxxxx
            x  Element         Atom        Fractional coordinates of atoms  x
            x                 Number           u          v          w      x
            x---------------------------------------------------------------x
            x  P                 1         0.250000   0.636320   0.909439   x
            x  P                 2         0.250000   0.156790   0.745682   x
            x  P                 3         0.750000   0.656790   0.745682   x
            x  P                 4         0.750000   0.136320   0.909439   x
            x  P                 5         0.750000   0.218395   0.252836   x
            x  P                 6         0.750000   0.697858   0.417137   x
            x  P                 7         0.750000   0.177330   0.581359   x
            x  P                 8         0.250000   0.718395   0.252836   x
            x  P                 9         0.250000   0.238975   0.088203   x
            x  P                10         0.750000   0.738975   0.088203   x
            x  P                11         0.250000   0.197858   0.417137   x
            x  P                12         0.250000   0.677330   0.581359   x
            x  In                1         0.000000   0.396430   0.828564   x
            x  In                2         0.500000   0.416994   0.664049   x
            x  In                3         0.500000  -0.103570   0.828564   x
            x  In                4         0.500000  -0.021405   0.171239   x
            x  In                5         0.500000   0.499225   0.006204   x
            x  In                6         0.000000  -0.000775   0.006204   x
            x  In                7         0.000000   0.478595   0.171239   x
            x  In                8         0.000000  -0.083006   0.664049   x
            x  In                9         0.500000  -0.062472   0.499777   x
            x  In               10         0.500000   0.458061   0.335512   x
            x  In               11         0.000000  -0.041939   0.335512   x
            x  In               12         0.000000   0.437528   0.499777   x
            xxxxxxxxxxxxxxxxxxxxxxxxxxxxxxxxxxxxxxxxxxxxxxxxxxxxxxxxxxxxxxxxx


------------------------------------------------------------------------ <-- SCF
SCF loop      Energy           Fermi           Energy gain       Timer   <-- SCF
                               energy          per atom          (sec)   <-- SCF
------------------------------------------------------------------------ <-- SCF
Initial  -2.35782390E+004  0.00000000E+000                      1679.04  <-- SCF
      1  -2.35782394E+004  3.50672211E+000   1.79776205E-005    1713.86  <-- SCF
      2  -2.35782394E+004  3.50672211E+000   1.53789419E-008    1740.85  <-- SCF
      3  -2.35782394E+004  3.50671693E+000   9.73960985E-010    1767.84  <-- SCF
      4  -2.35782394E+004  3.50671140E+000   3.17478283E-010    1791.91  <-- SCF
------------------------------------------------------------------------ <-- SCF
 
Final energy, E             =  -23578.23920149     eV
Final free energy (E-TS)    =  -23578.23944149     eV
(energies not corrected for finite basis set)
 
NB est. 0K energy (E-0.5TS)      =  -23578.23932149     eV
 

 ******************************** Constrained Forces ********************************
 *                                                                                  *
 *                           Cartesian components (eV/A)                            *
 * -------------------------------------------------------------------------------- *
 *                         x                    y                    z              *
 *                                                                                  *
 * P               1      0.00000(cons'd)     -0.00000(cons'd)     -0.00061         *
 * P               2     -0.00000(cons'd)      0.00000(cons'd)     -0.00029         *
 * P               3     -0.00000(cons'd)     -0.00000(cons'd)     -0.00029         *
 * P               4      0.00000(cons'd)      0.00000(cons'd)     -0.00061         *
 * P               5     -0.00000(cons'd)      0.00000(cons'd)      0.00027         *
 * P               6     -0.00000(cons'd)      0.00000(cons'd)     -0.00003         *
 * P               7      0.00000(cons'd)     -0.00000(cons'd)     -0.00000         *
 * P               8      0.00000(cons'd)      0.00000(cons'd)      0.00027         *
 * P               9      0.00000(cons'd)      0.00000(cons'd)     -0.00035         *
 * P              10     -0.00000(cons'd)      0.00000(cons'd)     -0.00035         *
 * P              11      0.00000(cons'd)      0.00000(cons'd)     -0.00003         *
 * P              12     -0.00000(cons'd)     -0.00000(cons'd)     -0.00000         *
 * In              1      0.00000(cons'd)      0.00000(cons'd)      0.00097         *
 * In              2      0.00000(cons'd)      0.00000(cons'd)      0.00005         *
 * In              3      0.00000(cons'd)      0.00000(cons'd)      0.00097         *
 * In              4      0.00000(cons'd)      0.00000(cons'd)      0.00007         *
 * In              5      0.00000(cons'd)      0.00000(cons'd)      0.00090         *
 * In              6      0.00000(cons'd)      0.00000(cons'd)      0.00089         *
 * In              7      0.00000(cons'd)      0.00000(cons'd)      0.00007         *
 * In              8      0.00000(cons'd)      0.00000(cons'd)      0.00005         *
 * In              9      0.00000(cons'd)     -0.00000(cons'd)     -0.00028         *
 * In             10      0.00000(cons'd)      0.00000(cons'd)     -0.00068         *
 * In             11      0.00000(cons'd)      0.00000(cons'd)     -0.00068         *
 * In             12      0.00000(cons'd)      0.00000(cons'd)     -0.00028         *
 *                                                                                  *
 ************************************************************************************
  
 +------------+-------------+-------------+-----------------+ <-- min LBFGS
 |    Step    |   lambda    |   F.delta'  |    enthalpy     | <-- min LBFGS
 +------------+-------------+-------------+-----------------+ <-- min LBFGS
 |  previous  |    0.000000 |    0.001551 |   -23578.239441 | <-- min LBFGS
 | trial step |    1.000000 |   -0.001328 |   -23578.239441 | <-- min LBFGS
 |  line step |    0.538721 |    0.000576 |   -23578.239441 | <-- min LBFGS
 +------------+-------------+-------------+-----------------+ <-- min LBFGS
  
 LBFGS: finished iteration     3 with enthalpy= -2.35782394E+004 eV
  
 +-----------+-----------------+-----------------+------------+-----+ <-- LBFGS
 | Parameter |      value      |    tolerance    |    units   | OK? | <-- LBFGS
 +-----------+-----------------+-----------------+------------+-----+ <-- LBFGS
 |  dE/ion   |   2.986268E-009 |   2.000000E-005 |         eV | Yes | <-- LBFGS
 |  |F|max   |   9.731788E-004 |   1.000000E-003 |       eV/A | Yes | <-- LBFGS
 |  |dR|max  |   9.038590E-005 |   1.000000E-003 |          A | Yes | <-- LBFGS
 +-----------+-----------------+-----------------+------------+-----+ <-- LBFGS
  
 Hirshfeld supercell size:           3           3           1
Standard grid dimensions: 180 180 180
Fine grid dimensions:     180 180 180

 LBFGS: Geometry optimization completed successfully.

================================================================================
 LBFGS: Final Configuration:
================================================================================

                           -------------------------------
                                     Cell Contents
                           -------------------------------

            xxxxxxxxxxxxxxxxxxxxxxxxxxxxxxxxxxxxxxxxxxxxxxxxxxxxxxxxxxxxxxxxx
            x  Element         Atom        Fractional coordinates of atoms  x
            x                 Number           u          v          w      x
            x---------------------------------------------------------------x
            x  P                 1         0.250000   0.636320   0.909439   x
            x  P                 2         0.250000   0.156790   0.745682   x
            x  P                 3         0.750000   0.656790   0.745682   x
            x  P                 4         0.750000   0.136320   0.909439   x
            x  P                 5         0.750000   0.218395   0.252836   x
            x  P                 6         0.750000   0.697858   0.417137   x
            x  P                 7         0.750000   0.177330   0.581359   x
            x  P                 8         0.250000   0.718395   0.252836   x
            x  P                 9         0.250000   0.238975   0.088203   x
            x  P                10         0.750000   0.738975   0.088203   x
            x  P                11         0.250000   0.197858   0.417137   x
            x  P                12         0.250000   0.677330   0.581359   x
            x  In                1         0.000000   0.396430   0.828564   x
            x  In                2         0.500000   0.416994   0.664049   x
            x  In                3         0.500000  -0.103570   0.828564   x
            x  In                4         0.500000  -0.021405   0.171239   x
            x  In                5         0.500000   0.499225   0.006204   x
            x  In                6         0.000000  -0.000775   0.006204   x
            x  In                7         0.000000   0.478595   0.171239   x
            x  In                8         0.000000  -0.083006   0.664049   x
            x  In                9         0.500000  -0.062472   0.499777   x
            x  In               10         0.500000   0.458061   0.335512   x
            x  In               11         0.000000  -0.041939   0.335512   x
            x  In               12         0.000000   0.437528   0.499777   x
            xxxxxxxxxxxxxxxxxxxxxxxxxxxxxxxxxxxxxxxxxxxxxxxxxxxxxxxxxxxxxxxxx


 LBFGS: Final Enthalpy     = -2.35782394E+004 eV
 LBFGS: Final <frequency>  =     200.09690 cm-1

 ******************* Unconstrained Forces *******************
 *                                                          *
 *               Cartesian components (eV/A)                *
 * -------------------------------------------------------- *
 *                         x            y            z      *
 *                                                          *
 * P               1     -0.77987      1.59100     -0.00061 *
 * P               2      0.14114      0.07615     -0.00029 *
 * P               3      0.14114      0.07616     -0.00029 *
 * P               4     -0.77987      1.59100     -0.00061 *
 * P               5      0.01276     -0.04605      0.00027 *
 * P               6      0.00497     -0.00972     -0.00003 *
 * P               7      0.01931      0.00509     -0.00000 *
 * P               8      0.01276     -0.04605      0.00027 *
 * P               9      0.08382     -0.35287     -0.00035 *
 * P              10      0.08382     -0.35287     -0.00035 *
 * P              11      0.00497     -0.00972     -0.00003 *
 * P              12      0.01931      0.00509     -0.00000 *
 * In              1     -0.14206     -0.18686      0.00097 *
 * In              2     -0.01776     -0.03406      0.00005 *
 * In              3     -0.14206     -0.18686      0.00097 *
 * In              4     -0.11655      0.00393      0.00007 *
 * In              5      0.81767     -1.04016      0.00090 *
 * In              6      0.81767     -1.04016      0.00089 *
 * In              7     -0.11655      0.00393      0.00007 *
 * In              8     -0.01776     -0.03406      0.00005 *
 * In              9     -0.00595     -0.00525     -0.00028 *
 * In             10     -0.01748     -0.00121     -0.00068 *
 * In             11     -0.01748     -0.00121     -0.00068 *
 * In             12     -0.00595     -0.00525     -0.00028 *
 *                                                          *
 ************************************************************

 ******************************** Constrained Forces ********************************
 *                                                                                  *
 *                           Cartesian components (eV/A)                            *
 * -------------------------------------------------------------------------------- *
 *                         x                    y                    z              *
 *                                                                                  *
 * P               1      0.00000(cons'd)     -0.00000(cons'd)     -0.00061         *
 * P               2     -0.00000(cons'd)      0.00000(cons'd)     -0.00029         *
 * P               3     -0.00000(cons'd)      0.00000(cons'd)     -0.00029         *
 * P               4      0.00000(cons'd)     -0.00000(cons'd)     -0.00061         *
 * P               5      0.00000(cons'd)      0.00000(cons'd)      0.00027         *
 * P               6      0.00000(cons'd)      0.00000(cons'd)     -0.00003         *
 * P               7      0.00000(cons'd)     -0.00000(cons'd)     -0.00000         *
 * P               8     -0.00000(cons'd)      0.00000(cons'd)      0.00027         *
 * P               9      0.00000(cons'd)      0.00000(cons'd)     -0.00035         *
 * P              10     -0.00000(cons'd)      0.00000(cons'd)     -0.00035         *
 * P              11     -0.00000(cons'd)      0.00000(cons'd)     -0.00003         *
 * P              12      0.00000(cons'd)     -0.00000(cons'd)     -0.00000         *
 * In              1      0.00000(cons'd)      0.00000(cons'd)      0.00097         *
 * In              2      0.00000(cons'd)      0.00000(cons'd)      0.00005         *
 * In              3      0.00000(cons'd)      0.00000(cons'd)      0.00097         *
 * In              4      0.00000(cons'd)      0.00000(cons'd)      0.00007         *
 * In              5      0.00000(cons'd)      0.00000(cons'd)      0.00090         *
 * In              6      0.00000(cons'd)      0.00000(cons'd)      0.00089         *
 * In              7      0.00000(cons'd)      0.00000(cons'd)      0.00007         *
 * In              8      0.00000(cons'd)      0.00000(cons'd)      0.00005         *
 * In              9      0.00000(cons'd)      0.00000(cons'd)     -0.00028         *
 * In             10      0.00000(cons'd)      0.00000(cons'd)     -0.00068         *
 * In             11      0.00000(cons'd)      0.00000(cons'd)     -0.00068         *
 * In             12      0.00000(cons'd)     -0.00000(cons'd)     -0.00028         *
 *                                                                                  *
 ************************************************************************************

 Pseudo atomic calculation performed for P 3s2 3p3

 Converged in 23 iterations to a total energy of -208.0292 eV

 Pseudo atomic calculation performed for In 4d10 5s2 5p1

 Converged in 42 iterations to a total energy of -1747.4501 eV
Charge spilling parameter for spin component 1 = 0.16%

            Orbital Populations       
     Ion    Atom   Orbital             Charge
  -------------------------------------------
      P     1      S                    1.739
      P     1      Px                   1.313
      P     1      Py                   1.338
      P     1      Pz                   1.291
      P     2      S                    1.733
      P     2      Px                   1.312
      P     2      Py                   1.313
      P     2      Pz                   1.317
      P     3      S                    1.733
      P     3      Px                   1.312
      P     3      Py                   1.313
      P     3      Pz                   1.317
      P     4      S                    1.739
      P     4      Px                   1.313
      P     4      Py                   1.338
      P     4      Pz                   1.291
      P     5      S                    1.731
      P     5      Px                   1.315
      P     5      Py                   1.315
      P     5      Pz                   1.318
      P     6      S                    1.731
      P     6      Px                   1.315
      P     6      Py                   1.315
      P     6      Pz                   1.318
      P     7      S                    1.731
      P     7      Px                   1.315
      P     7      Py                   1.315
      P     7      Pz                   1.318
      P     8      S                    1.731
      P     8      Px                   1.315
      P     8      Py                   1.315
      P     8      Pz                   1.318
      P     9      S                    1.738
      P     9      Px                   1.309
      P     9      Py                   1.307
      P     9      Pz                   1.318
      P    10      S                    1.738
      P    10      Px                   1.309
      P    10      Py                   1.307
      P    10      Pz                   1.318
      P    11      S                    1.731
      P    11      Px                   1.315
      P    11      Py                   1.315
      P    11      Pz                   1.318
      P    12      S                    1.731
      P    12      Px                   1.315
      P    12      Py                   1.315
      P    12      Pz                   1.318
     In     1      Dzz                  1.999
     In     1      Dzy                  1.997
     In     1      Dzx                  1.997
     In     1      Dxx-yy               1.999
     In     1      Dxy                  1.997
     In     1      S                    1.434
     In     1      Px                   0.489
     In     1      Py                   0.481
     In     1      Pz                   0.481
     In     1      S                   -0.539
     In     2      Dzz                  1.999
     In     2      Dzy                  1.997
     In     2      Dzx                  1.997
     In     2      Dxx-yy               1.999
     In     2      Dxy                  1.997
     In     2      S                    1.436
     In     2      Px                   0.487
     In     2      Py                   0.487
     In     2      Pz                   0.479
     In     2      S                   -0.556
     In     3      Dzz                  1.999
     In     3      Dzy                  1.997
     In     3      Dzx                  1.997
     In     3      Dxx-yy               1.999
     In     3      Dxy                  1.997
     In     3      S                    1.434
     In     3      Px                   0.489
     In     3      Py                   0.481
     In     3      Pz                   0.481
     In     3      S                   -0.539
     In     4      Dzz                  1.999
     In     4      Dzy                  1.997
     In     4      Dzx                  1.997
     In     4      Dxx-yy               1.999
     In     4      Dxy                  1.997
     In     4      S                    1.437
     In     4      Px                   0.487
     In     4      Py                   0.486
     In     4      Pz                   0.476
     In     4      S                   -0.537
     In     5      Dzz                  1.999
     In     5      Dzy                  1.998
     In     5      Dzx                  1.995
     In     5      Dxx-yy               1.999
     In     5      Dxy                  1.997
     In     5      S                    1.444
     In     5      Px                   0.463
     In     5      Py                   0.450
     In     5      Pz                   0.499
     In     5      S                   -0.526
     In     6      Dzz                  1.999
     In     6      Dzy                  1.998
     In     6      Dzx                  1.995
     In     6      Dxx-yy               1.999
     In     6      Dxy                  1.997
     In     6      S                    1.444
     In     6      Px                   0.463
     In     6      Py                   0.450
     In     6      Pz                   0.499
     In     6      S                   -0.526
     In     7      Dzz                  1.999
     In     7      Dzy                  1.997
     In     7      Dzx                  1.997
     In     7      Dxx-yy               1.999
     In     7      Dxy                  1.997
     In     7      S                    1.437
     In     7      Px                   0.487
     In     7      Py                   0.486
     In     7      Pz                   0.476
     In     7      S                   -0.537
     In     8      Dzz                  1.999
     In     8      Dzy                  1.997
     In     8      Dzx                  1.997
     In     8      Dxx-yy               1.999
     In     8      Dxy                  1.997
     In     8      S                    1.436
     In     8      Px                   0.487
     In     8      Py                   0.487
     In     8      Pz                   0.479
     In     8      S                   -0.556
     In     9      Dzz                  1.999
     In     9      Dzy                  1.997
     In     9      Dzx                  1.997
     In     9      Dxx-yy               1.999
     In     9      Dxy                  1.997
     In     9      S                    1.435
     In     9      Px                   0.486
     In     9      Py                   0.486
     In     9      Pz                   0.479
     In     9      S                   -0.563
     In    10      Dzz                  1.999
     In    10      Dzy                  1.997
     In    10      Dzx                  1.997
     In    10      Dxx-yy               1.999
     In    10      Dxy                  1.997
     In    10      S                    1.436
     In    10      Px                   0.486
     In    10      Py                   0.486
     In    10      Pz                   0.479
     In    10      S                   -0.566
     In    11      Dzz                  1.999
     In    11      Dzy                  1.997
     In    11      Dzx                  1.997
     In    11      Dxx-yy               1.999
     In    11      Dxy                  1.997
     In    11      S                    1.436
     In    11      Px                   0.486
     In    11      Py                   0.486
     In    11      Pz                   0.479
     In    11      S                   -0.566
     In    12      Dzz                  1.999
     In    12      Dzy                  1.997
     In    12      Dzx                  1.997
     In    12      Dxx-yy               1.999
     In    12      Dxy                  1.997
     In    12      S                    1.435
     In    12      Px                   0.486
     In    12      Py                   0.486
     In    12      Pz                   0.479
     In    12      S                   -0.563
  -------------------------------------------
                           Total:     216.000
  -------------------------------------------

     Atomic Populations (Mulliken)
     -----------------------------
Species          Ion     s       p       d       f      Total   Charge (e)
==========================================================================
  P               1     1.739   3.943   0.000   0.000   5.681    -0.681
  P               2     1.733   3.943   0.000   0.000   5.675    -0.675
  P               3     1.733   3.943   0.000   0.000   5.675    -0.675
  P               4     1.739   3.943   0.000   0.000   5.681    -0.681
  P               5     1.731   3.947   0.000   0.000   5.679    -0.679
  P               6     1.731   3.948   0.000   0.000   5.679    -0.679
  P               7     1.731   3.948   0.000   0.000   5.679    -0.679
  P               8     1.731   3.947   0.000   0.000   5.679    -0.679
  P               9     1.738   3.934   0.000   0.000   5.672    -0.672
  P              10     1.738   3.934   0.000   0.000   5.672    -0.672
  P              11     1.731   3.948   0.000   0.000   5.679    -0.679
  P              12     1.731   3.948   0.000   0.000   5.679    -0.679
  In              1     0.895   1.452   9.988   0.000  12.336     0.664
  In              2     0.879   1.453   9.989   0.000  12.321     0.679
  In              3     0.895   1.452   9.988   0.000  12.336     0.664
  In              4     0.900   1.448   9.989   0.000  12.337     0.663
  In              5     0.918   1.412   9.988   0.000  12.319     0.681
  In              6     0.918   1.412   9.988   0.000  12.319     0.681
  In              7     0.900   1.448   9.989   0.000  12.337     0.663
  In              8     0.879   1.453   9.989   0.000  12.321     0.679
  In              9     0.873   1.451   9.989   0.000  12.313     0.687
  In             10     0.870   1.451   9.989   0.000  12.309     0.691
  In             11     0.870   1.451   9.989   0.000  12.309     0.691
  In             12     0.873   1.451   9.989   0.000  12.313     0.687
==========================================================================

                 Bond                   Population      Length (A)
======================================================================
              P 1  -- In 5                   0.86        2.37812
              P 4  -- In 6                   0.86        2.37812
              P 1  -- In 1                   0.64        2.53044
              P 4  -- In 3                   0.64        2.53044
              P 1  -- In 3                   0.62        2.53045
              P 4  -- In 1                   0.62        2.53045
              P 7  -- In 9                   0.60        2.53756
              P 12 -- In 12                  0.60        2.53756
              P 7  -- In 12                  0.60        2.53756
              P 12 -- In 9                   0.60        2.53756
              P 8  -- In 7                   0.61        2.53770
              P 5  -- In 4                   0.61        2.53770
              P 8  -- In 4                   0.58        2.53770
              P 5  -- In 7                   0.58        2.53770
              P 11 -- In 11                  0.60        2.53799
              P 6  -- In 10                  0.60        2.53799
              P 11 -- In 10                  0.59        2.53799
              P 6  -- In 11                  0.59        2.53799
              P 3  -- In 2                   0.58        2.53807
              P 2  -- In 8                   0.58        2.53807
              P 2  -- In 2                   0.60        2.53807
              P 3  -- In 8                   0.60        2.53807
              P 9  -- In 6                   0.63        2.54176
              P 10 -- In 5                   0.63        2.54176
              P 10 -- In 6                   0.53        2.54176
              P 9  -- In 5                   0.53        2.54176
              P 6  -- In 9                   0.57        2.54826
              P 6  -- In 12                  0.57        2.54826
              P 11 -- In 9                   0.57        2.54826
              P 11 -- In 12                  0.57        2.54826
              P 5  -- In 11                  0.57        2.54862
              P 8  -- In 11                  0.57        2.54862
              P 5  -- In 10                  0.57        2.54862
              P 8  -- In 10                  0.57        2.54862
              P 12 -- In 8                   0.57        2.54876
              P 7  -- In 8                   0.56        2.54876
              P 12 -- In 2                   0.56        2.54876
              P 7  -- In 2                   0.57        2.54876
              P 3  -- In 3                   0.55        2.55072
              P 3  -- In 1                   0.60        2.55072
              P 2  -- In 3                   0.60        2.55072
              P 2  -- In 1                   0.55        2.55072
              P 10 -- In 4                   0.56        2.55229
              P 10 -- In 7                   0.56        2.55229
              P 9  -- In 4                   0.56        2.55229
              P 9  -- In 7                   0.56        2.55229
======================================================================

 Hirshfeld supercell size:           3           3           1
Standard grid dimensions: 180 180 180
Fine grid dimensions:     180 180 180


     Hirshfeld Analysis
     ------------------
Species   Ion     Hirshfeld Charge (e)
======================================
  P        1                -0.26
  P        2                -0.24
  P        3                -0.24
  P        4                -0.26
  P        5                -0.24
  P        6                -0.24
  P        7                -0.24
  P        8                -0.24
  P        9                -0.23
  P       10                -0.23
  P       11                -0.24
  P       12                -0.24
  In       1                 0.24
  In       2                 0.24
  In       3                 0.24
  In       4                 0.24
  In       5                 0.26
  In       6                 0.26
  In       7                 0.24
  In       8                 0.24
  In       9                 0.24
  In      10                 0.24
  In      11                 0.24
  In      12                 0.24
======================================

 
 A BibTeX formatted list of references used in this run has been written to 
 StackingFaultStructs_001_100_1.bib
 
Initialisation time =     21.86 s
Calculation time    =   1873.71 s
Finalisation time   =     53.39 s
Total time          =   1948.96 s
Peak Memory Use     = 5876456 kB
 
Overall parallel efficiency rating: Poor (35%)
 
Data was distributed by:-
G-vector (2-way); efficiency rating: Poor (45%)
k-point (40-way); efficiency rating: Satisfactory (62%)
