 +-------------------------------------------------+
 |                                                 |
 |      CCC   AA    SSS  TTTTT  EEEEE  PPPP        |
 |     C     A  A  S       T    E      P   P       |
 |     C     AAAA   SS     T    EEE    PPPP        |
 |     C     A  A     S    T    E      P           |
 |      CCC  A  A  SSS     T    EEEEE  P           |
 |                                                 |
 +-------------------------------------------------+
 |                                                 |
 | Welcome to Academic Release CASTEP version 22.11|
 | Ab Initio Total Energy Program                  |
 |                                                 |
 | Authors:                                        |
 | M. Segall, M. Probert, C. Pickard, P. Hasnip,   |
 | S. Clark, K. Refson, J. R. Yates, M. Payne      |
 |                                                 |
 | Contributors:                                   |
 | P. Lindan, P. Haynes, J. White, V. Milman,      |
 | N. Govind, M. Gibson, P. Tulip, V. Cocula,      |
 | B. Montanari, D. Quigley, M. Glover,            |
 | L. Bernasconi, A. Perlov, M. Plummer,           |
 | E. McNellis, J. Meyer, J. Gale, D. Jochym       |
 | J. Aarons, B. Walker, R. Gillen, D. Jones       |
 | T. Green, I. J. Bush, C. J. Armstrong,          |
 | E. J. Higgins, E. L. Brown, M. S. McFly,        |
 | J. Wilkins, B-C. Shih, P. J. P. Byrne,          |
 | R. J. Maurer, J. C. Womack, J. Dziedzic,        |
 | A. Bartok-Partay, L. LeBlanc, T. K. Stenczel,   |
 | J. Kermode, S. Sturniolo, B. Shi, B. Durham     |
 | M. Evans, M. J. Smith                           |
 |                                                 |
 | Copyright (c) 2000 - 2021                       |
 |                                                 |
 |     Distributed under license from Cambridge    |
 |     Enterprise for academic use only.           |
 |                                                 |
 | Please cite                                     |
 |                                                 |
 |     "First principles methods using CASTEP"     |
 |                                                 |
 |         Zeitschrift fuer Kristallographie       |
 |           220(5-6) pp. 567-570 (2005)           |
 |                                                 |
 | S. J. Clark, M. D. Segall, C. J. Pickard,       |
 | P. J. Hasnip, M. J. Probert, K. Refson,         |
 | M. C. Payne                                     |
 |                                                 |
 |       in all publications arising from          |
 |              your use of CASTEP                 |
 |                                                 |
 +-------------------------------------------------+
 |                                                 |
 |              http://www.castep.org              |
 |                                                 |
 +-------------------------------------------------+



 Compiled for linux_x86_64_gfortran10-XT on Thu, 16 Mar 2023 13:12:36 +0000
 from code version Version unavailable
 Compiler: GNU Fortran 11.2.0; Optimisation: fast
 MATHLIBS: LibSci (LAPACK version 3.10.1)
 FFT Lib : fftw3 version commercial-fftw-3.3.10-sse2-avx-avx2-avx2_128
 Fundamental constants values: CODATA 2014

 Run started: Mon, 25 Mar 2024 19:49:41 +0000

 Atomic calculation performed for P: 1s2 2s2 2p6 3s2 3p3

 Converged in 47 iterations to an ae energy of -9309.074 eV

   ============================================================                
   | Pseudopotential Report - Date of generation 25-03-2024   |                
   ------------------------------------------------------------                
   | Element: P Ionic charge:  5.00 Level of theory: RSCAN    |                
   | Atomic Solver: Koelling-Harmon                           |                
   |                                                          |                
   |               Reference Electronic Structure             |                
   |         Orbital         Occupation         Energy        |                
   |            3s              2.000           -0.535        |                
   |            3p              3.000           -0.209        |                
   |                                                          |                
   |                 Pseudopotential Definition               |                
   |        Beta     l      e      Rc     scheme   norm       |                
   |          1      0   -0.535   1.807     qc      0         |                
   |          2      0    0.250   1.807     qc      0         |                
   |          3      1   -0.209   1.807     qc      0         |                
   |          4      1    0.250   1.807     qc      0         |                
   |          5      2    0.000   1.807     qc      0         |                
   |          6      2    0.250   1.807     qc      0         |                
   |         loc     3    0.000   1.807     pn      0         |                
   |                                                          |                
   | Augmentation charge Rinner = 1.263                       |                
   | Partial core correction Rc = 1.263                       |                
   ------------------------------------------------------------                
   | "3|1.8|4|4|5|30:31:32"                                   |                
   ------------------------------------------------------------                
   |      Author: Chris J. Pickard, Cambridge University      |                
   ============================================================                
 Warning: otfg_output_psp cannot write out meta-GGA pseudopotentials presently.

 Atomic calculation performed for In:
 1s2 2s2 2p6 3s2 3p6 3d10 4s2 4p6 4d10 5s2 5p1

 Converged in 84 iterations to an ae energy of -160093.327 eV

   ============================================================                
   | Pseudopotential Report - Date of generation 25-03-2024   |                
   ------------------------------------------------------------                
   | Element: In Ionic charge: 13.00 Level of theory: RSCAN   |                
   | Atomic Solver: Koelling-Harmon                           |                
   |                                                          |                
   |               Reference Electronic Structure             |                
   |         Orbital         Occupation         Energy        |                
   |            4d             10.000           -0.711        |                
   |            5s              2.000           -0.313        |                
   |            5p              1.000           -0.095        |                
   |                                                          |                
   |                 Pseudopotential Definition               |                
   |        Beta     l      e      Rc     scheme   norm       |                
   |          1      0   -0.313   2.501     qc      0         |                
   |          2      0    0.250   2.501     qc      0         |                
   |          3      1   -0.095   2.501     qc      0         |                
   |          4      1    0.250   2.501     qc      0         |                
   |          5      2   -0.711   2.207     qc      0         |                
   |          6      2    0.250   2.207     qc      0         |                
   |         loc     3    0.000   2.501     pn      0         |                
   |                                                          |                
   | Augmentation charge Rinner = 1.504                       |                
   | Partial core correction Rc = 1.504                       |                
   ------------------------------------------------------------                
   | "3|2.5|2.5|1.5|7|8|9|50:51:42U2.2U2.2"                   |                
   ------------------------------------------------------------                
   |      Author: Chris J. Pickard, Cambridge University      |                
   ============================================================                
 Warning: otfg_output_psp cannot write out meta-GGA pseudopotentials presently.

 Pseudo atomic calculation performed for P 3s2 3p3

 Converged in 23 iterations to a total energy of -208.0292 eV

 Pseudo atomic calculation performed for In 4d10 5s2 5p1

 Converged in 42 iterations to a total energy of -1747.4500 eV
 Calculation parallelised over 240 processes.
 Data is distributed by G-vector(6-way) and k-point(40-way)
 Each process may use up to 2 threads.

 ************************************ Title ************************************
 

 ***************************** General Parameters ******************************
  
 output verbosity                               : normal  (1)
 write checkpoint data to                       : StackingFaultStructs_(1_1_0)_(1_-1_0)_3.check
 type of calculation                            : geometry optimization
 stress calculation                             : off
 density difference calculation                 : off
 electron localisation func (ELF) calculation   : off
 Hirshfeld analysis                             : on
 polarisation (Berry phase) analysis            : off
 molecular orbital projected DOS                : off
 deltaSCF calculation                           : off
 unlimited duration calculation
 timing information                             : on
 memory usage estimate                          : on
 write extra output files                       : on
 write final potential to formatted file        : off
 write final density to formatted file          : off
 write BibTeX reference list                    : on
 write OTFG pseudopotential files               : on
 write electrostatic potential file             : on
 write bands file                               : on
 checkpoint writing                             : off
  
 output         length unit                     : A
 output           mass unit                     : amu
 output           time unit                     : ps
 output         charge unit                     : e
 output           spin unit                     : hbar/2
 output         energy unit                     : eV
 output          force unit                     : eV/A
 output       velocity unit                     : A/ps
 output       pressure unit                     : GPa
 output     inv_length unit                     : 1/A
 output      frequency unit                     : cm-1
 output force constant unit                     : eV/A**2
 output         volume unit                     : A**3
 output   IR intensity unit                     : (D/A)**2/amu
 output         dipole unit                     : D
 output         efield unit                     : eV/A/e
 output        entropy unit                     : J/mol/K
 output    efield chi2 unit                     : pm/V
  
 wavefunctions paging                           : none
 random number generator seed                   : randomised (194941630)
 data distribution                              : optimal for this architecture
 optimization strategy                          : balance speed and memory

 *********************** Exchange-Correlation Parameters ***********************
  
 using functional                               : RSCAN
 relativistic treatment                         : Koelling-Harmon
 DFT+D: Semi-empirical dispersion correction    : off

 ************************* Pseudopotential Parameters **************************
  
 pseudopotential representation                 : reciprocal space
 <beta|phi> representation                      : reciprocal space
 spin-orbit coupling                            : off

 **************************** Basis Set Parameters *****************************
  
 plane wave basis set cut-off                   :   900.0000   eV
 size of standard grid                          :     2.0000
 size of   fine   gmax                          :    30.7390   1/A
 finite basis set correction                    : none

 **************************** Electronic Parameters ****************************
  
 number of  electrons                           :  288.0    
 net charge of system                           :  0.000    
 treating system as non-spin-polarized
 number of bands                                :        173

 ********************* Electronic Minimization Parameters **********************
  
 Method: Treating system as metallic with density mixing treatment of electrons,
         and number of  SD  steps               :          1
         and number of  CG  steps               :          4
  
 total energy / atom convergence tol.           : 0.1000E-07   eV
 eigen-energy convergence tolerance             : 0.2222E-08   eV
 max force / atom convergence tol.              : ignored
 convergence tolerance window                   :          3   cycles
 max. number of SCF cycles                      :         50
 number of fixed-spin iterations                :         10
 smearing scheme                                : Gaussian
 smearing width                                 : 0.2000       eV
 Fermi energy convergence tolerance             : 0.2721E-13   eV
 periodic dipole correction                     : NONE

 ************************** Density Mixing Parameters **************************
  
 density-mixing scheme                          : Pulay
 max. length of mixing history                  :         15
 charge density mixing amplitude                : 0.5000    
 cut-off energy for mixing                      :  900.0       eV

 *********************** Population Analysis Parameters ************************
  
 Population analysis with cutoff                :  3.000       A
 Population analysis output                     : summary and pdos components

 ********************** Geometry Optimization Parameters ***********************
  
 optimization method                            : LBFGS
 max. no. of LBFGS updates                      : unbounded
 preconditioned LBFGS is activated
 preconditioner type                            : EXP
     stabilization constant                     :     0.1000
     parameter A                                :     3.0000
     nearest neighbor distance                  : automatic
     cut-off distance                           : automatic
     parameter mu                               : automatic
 variable cell method                           : fixed basis quality
 max. number of steps                           :         30
 estimated bulk modulus                         :  500.0       GPa
 estimated <frequency>                          :  1668.       cm-1
 geom line minimiser                            : on
 with line minimiser tolerance                  :     0.4000
 total energy convergence tolerance             : 0.2000E-04   eV/atom
        max ionic |force| tolerance             : 0.1000E-02   eV/A
 max ionic |displacement| tolerance             : 0.1000E-02   A
   max |stress component| tolerance             : 0.1000       GPa
 convergence tolerance window                   :          2   steps
 backup results every                           :          5   steps
 write geom trajectory file                     : on

 *******************************************************************************
  

                           -------------------------------
                                      Unit Cell
                           -------------------------------
        Real Lattice(A)                      Reciprocal Lattice(1/A)
     5.9012740     0.0000000     0.0000000        1.064716756   0.000000000   0.000000000
     0.0000000     8.3456610     0.0000000        0.000000000   0.752868503  -0.065152067
     0.0000000     1.4444410    16.6913220        0.000000000   0.000000000   0.376434252

                       Lattice parameters(A)       Cell Angles
                    a =      5.901274          alpha =   85.054035
                    b =      8.345661          beta  =   90.000000
                    c =     16.753705          gamma =   90.000000

                       Current cell volume =           822.048147       A**3
                                   density =             2.837630   AMU/A**3
                                           =             4.711995     g/cm^3

                           -------------------------------
                                     Cell Contents
                           -------------------------------
                         Total number of ions in cell =   32
                      Total number of species in cell =    2
                        Max number of any one species =   16

            xxxxxxxxxxxxxxxxxxxxxxxxxxxxxxxxxxxxxxxxxxxxxxxxxxxxxxxxxxxx
            x  Element    Atom        Fractional coordinates of atoms  x
            x            Number           u          v          w      x
            x----------------------------------------------------------x
            x  P            1         0.750000   0.435072   0.375142   x 
            x  P            2         0.250000   0.251599  -0.009238   x 
            x  P            3         0.750000   0.346959   0.884238   x 
            x  P            4         0.750000   0.478648   0.123365   x 
            x  P            5         0.250000   0.619909   0.751635   x 
            x  P            6         0.750000  -0.021352   0.123365   x 
            x  P            7         0.250000   0.207314   0.246633   x 
            x  P            8         0.250000   0.119909   0.751635   x 
            x  P            9         0.250000   0.707314   0.246633   x 
            x  P           10         0.750000  -0.108756   0.628367   x 
            x  P           11         0.750000  -0.064928   0.375142   x 
            x  P           12         0.750000   0.391244   0.628367   x 
            x  P           13         0.250000   0.163486   0.499858   x 
            x  P           14         0.250000   0.663486   0.499858   x 
            x  P           15         0.750000  -0.153041   0.884238   x 
            x  P           16         0.250000   0.751599  -0.009238   x 
            x  In           1         0.500000   0.185398   0.373254   x 
            x  In           2         0.000000   0.369016   0.756795   x 
            x  In           3         0.500000   0.641733   0.625545   x 
            x  In           4         0.000000  -0.130984   0.756795   x 
            x  In           5         0.500000   0.141733   0.625545   x 
            x  In           6         0.000000  -0.086841   0.501746   x 
            x  In           7         0.000000   0.413159   0.501746   x 
            x  In           8         0.500000   0.598400   0.875914   x 
            x  In           9         0.500000   0.685398   0.373254   x 
            x  In          10         0.000000   0.456825   0.249455   x 
            x  In          11         0.500000   0.729541   0.118205   x 
            x  In          12         0.500000   0.098400   0.875914   x 
            x  In          13         0.000000  -0.043175   0.249455   x 
            x  In          14         0.500000   0.229541   0.118205   x 
            x  In          15         0.000000   0.000158  -0.000914   x 
            x  In          16         0.000000   0.500158  -0.000914   x 
            xxxxxxxxxxxxxxxxxxxxxxxxxxxxxxxxxxxxxxxxxxxxxxxxxxxxxxxxxxxx


                         No user defined ionic velocities

                           -------------------------------
                                   Details of Species
                           -------------------------------

                               Mass of species in AMU
                                    P   30.9737600
                                    In  114.8180000

                          Electric Quadrupole Moment (Barn)
                                    P    1.0000000 No Isotope Defined
                                    In    0.7700000 Isotope115

                          Files used for pseudopotentials:
                                    P 3|1.8|4|4|5|30:31:32
                                    In 3|2.5|2.5|1.5|7|8|9|50:51:42U2.2U2.2

                           -------------------------------
                              k-Points For BZ Sampling
                           -------------------------------
                       MP grid size for SCF calculation is  6  6  2
                            with an offset of   0.083  0.083  0.250
                       Number of kpoints used =            40

                           -------------------------------
                               Symmetry and Constraints
                           -------------------------------

                      Cell is a supercell containing 2 primitive cells
                      Maximum deviation from symmetry =  0.00000         ANG

                      Number of symmetry operations   =           1
                      Number of ionic constraints     =          64
                      Point group of crystal =     1: C1, 1, 1
                      Space group of crystal =     4: P2_1, P 2yb

             Set iprint > 1 for details on symmetry rotations/translations

                         Centre of mass is NOT constrained
             Set iprint > 1 for details of linear ionic constraints

                         Number of cell constraints= 6
                         Cell constraints are:  0 0 0 0 0 0

                         External pressure/stress (GPa)
                          0.00000   0.00000   0.00000
                                    0.00000   0.00000
                                              0.00000
 
+---------------- MEMORY AND SCRATCH DISK ESTIMATES PER PROCESS --------------+
|                                                     Memory          Disk    |
| Baseline code, static data and system overhead      488.0 MB         0.0 MB |
| BLAS internal memory storage                          0.0 MB         0.0 MB |
| Model and support data                             1164.3 MB         0.0 MB |
| Electronic energy minimisation requirements         143.6 MB         0.0 MB |
| Force calculation requirements                       23.8 MB         0.0 MB |
|                                               ----------------------------- |
| Approx. total storage required per process         1795.9 MB         0.0 MB |
|                                                                             |
| Requirements will fluctuate during execution and may exceed these estimates |
+-----------------------------------------------------------------------------+
Calculating approximate eigenstates for fixed initial Hamiltonian
Cut-off for approx. calculation is  108.886 eV
Improving approx. states at cut-off of  450.000 eV
Resetting cut-off to  900.000 eV
Calculating total energy with cut-off of  900.000 eV.
------------------------------------------------------------------------ <-- SCF
SCF loop      Energy           Fermi           Energy gain       Timer   <-- SCF
                               energy          per atom          (sec)   <-- SCF
------------------------------------------------------------------------ <-- SCF
Initial  -3.15181054E+004  0.00000000E+000                        53.11  <-- SCF
      1  -3.13997395E+004  2.57472479E+000  -3.69893473E+000      78.30  <-- SCF
      2  -3.13997651E+004  2.57463900E+000   8.01744815E-004      99.28  <-- SCF
      3  -3.14336146E+004  2.88378581E+000   1.05779605E+000     122.10  <-- SCF
      4  -3.14393120E+004  2.95057614E+000   1.78042939E-001     149.89  <-- SCF
      5  -3.14368713E+004  3.26441458E+000  -7.62701960E-002     172.41  <-- SCF
      6  -3.14364148E+004  3.31333316E+000  -1.42658026E-002     194.92  <-- SCF
      7  -3.14363190E+004  3.36369128E+000  -2.99408893E-003     218.74  <-- SCF
      8  -3.14371408E+004  3.39893656E+000   2.56818176E-002     241.67  <-- SCF
      9  -3.14371276E+004  3.35357384E+000  -4.12011151E-004     264.74  <-- SCF
     10  -3.14371418E+004  3.36985396E+000   4.44363782E-004     288.14  <-- SCF
     11  -3.14371419E+004  3.36882556E+000   6.89703390E-007     312.34  <-- SCF
     12  -3.14371421E+004  3.36806988E+000   7.49169045E-006     335.47  <-- SCF
     13  -3.14371421E+004  3.36818724E+000   5.00211973E-008     354.11  <-- SCF
     14  -3.14371421E+004  3.36813007E+000  -1.52824609E-008     370.90  <-- SCF
     15  -3.14371421E+004  3.36810585E+000   1.72379879E-008     387.36  <-- SCF
     16  -3.14371421E+004  3.36811093E+000  -6.51584535E-010     403.82  <-- SCF
     17  -3.14371421E+004  3.36810574E+000  -1.54678821E-011     420.20  <-- SCF
------------------------------------------------------------------------ <-- SCF
 
Final energy, E             =  -31437.14154200     eV
Final free energy (E-TS)    =  -31437.14211132     eV
(energies not corrected for finite basis set)
 
NB est. 0K energy (E-0.5TS)      =  -31437.14182666     eV
 
 
+---------------- MEMORY AND SCRATCH DISK ESTIMATES PER PROCESS --------------+
|                                                     Memory          Disk    |
| Model and support data                              742.6 MB         0.0 MB |
| Electronic energy minimisation requirements         143.6 MB         0.0 MB |
| Geometry minimisation requirements                  168.9 MB         0.0 MB |
|                                               ----------------------------- |
| Approx. total storage required per process         1055.1 MB         0.0 MB |
|                                                                             |
| Requirements will fluctuate during execution and may exceed these estimates |
+-----------------------------------------------------------------------------+
 

 ******************************** Constrained Forces ********************************
 *                                                                                  *
 *                           Cartesian components (eV/A)                            *
 * -------------------------------------------------------------------------------- *
 *                         x                    y                    z              *
 *                                                                                  *
 * P               1      0.00000(cons'd)      0.00000(cons'd)      0.00075         *
 * P               2      0.00000(cons'd)      0.00000(cons'd)      0.01394         *
 * P               3      0.00000(cons'd)      0.00000(cons'd)     -0.01505         *
 * P               4      0.00000(cons'd)      0.00000(cons'd)     -0.02014         *
 * P               5     -0.00000(cons'd)      0.00000(cons'd)      0.01401         *
 * P               6      0.00000(cons'd)      0.00000(cons'd)     -0.02014         *
 * P               7      0.00000(cons'd)     -0.00000(cons'd)     -0.00330         *
 * P               8     -0.00000(cons'd)      0.00000(cons'd)      0.01401         *
 * P               9      0.00000(cons'd)     -0.00000(cons'd)     -0.00330         *
 * P              10      0.00000(cons'd)      0.00000(cons'd)      0.00209         *
 * P              11      0.00000(cons'd)     -0.00000(cons'd)      0.00075         *
 * P              12      0.00000(cons'd)      0.00000(cons'd)      0.00209         *
 * P              13      0.00000(cons'd)      0.00000(cons'd)     -0.00033         *
 * P              14      0.00000(cons'd)      0.00000(cons'd)     -0.00033         *
 * P              15      0.00000(cons'd)      0.00000(cons'd)     -0.01506         *
 * P              16      0.00000(cons'd)      0.00000(cons'd)      0.01394         *
 * In              1      0.00000(cons'd)      0.00000(cons'd)     -0.02093         *
 * In              2      0.00000(cons'd)      0.00000(cons'd)     -0.04838         *
 * In              3      0.00000(cons'd)      0.00000(cons'd)     -0.01449         *
 * In              4      0.00000(cons'd)      0.00000(cons'd)     -0.04838         *
 * In              5      0.00000(cons'd)      0.00000(cons'd)     -0.01449         *
 * In              6      0.00000(cons'd)      0.00000(cons'd)      0.02280         *
 * In              7      0.00000(cons'd)      0.00000(cons'd)      0.02280         *
 * In              8      0.00000(cons'd)      0.00000(cons'd)      0.02312         *
 * In              9      0.00000(cons'd)      0.00000(cons'd)     -0.02093         *
 * In             10      0.00000(cons'd)      0.00000(cons'd)      0.01665         *
 * In             11      0.00000(cons'd)      0.00000(cons'd)      0.05001         *
 * In             12      0.00000(cons'd)      0.00000(cons'd)      0.02312         *
 * In             13      0.00000(cons'd)      0.00000(cons'd)      0.01665         *
 * In             14      0.00000(cons'd)      0.00000(cons'd)      0.05001         *
 * In             15      0.00000(cons'd)      0.00000(cons'd)     -0.02077         *
 * In             16      0.00000(cons'd)      0.00000(cons'd)     -0.02077         *
 *                                                                                  *
 ************************************************************************************
 EXP precond LBFGS => estimated nearest neighbor distance :  2.559       A
 EXP precond LBFGS => estimated cutoff distance :  5.118       A

 ************************************** Forces **************************************
 *                                                                                  *
 *                           Cartesian components (eV/A)                            *
 * -------------------------------------------------------------------------------- *
 *                         x                    y                    z              *
 *                                                                                  *
 * P               1      0.05611(cons'd)     -0.00739(cons'd)      0.00075         *
 * P               2      0.57968(cons'd)     -1.07080(cons'd)      0.01394         *
 * P               3      0.57912(cons'd)      1.06798(cons'd)     -0.01505         *
 * P               4     -0.11758(cons'd)     -0.10835(cons'd)     -0.02014         *
 * P               5     -0.11755(cons'd)      0.11233(cons'd)      0.01401         *
 * P               6     -0.11758(cons'd)     -0.10835(cons'd)     -0.02014         *
 * P               7      0.14596(cons'd)     -0.00462(cons'd)     -0.00330         *
 * P               8     -0.11755(cons'd)      0.11234(cons'd)      0.01401         *
 * P               9      0.14596(cons'd)     -0.00462(cons'd)     -0.00330         *
 * P              10      0.14418(cons'd)      0.00423(cons'd)      0.00209         *
 * P              11      0.05611(cons'd)     -0.00739(cons'd)      0.00075         *
 * P              12      0.14418(cons'd)      0.00423(cons'd)      0.00209         *
 * P              13      0.05038(cons'd)      0.00718(cons'd)     -0.00033         *
 * P              14      0.05039(cons'd)      0.00717(cons'd)     -0.00033         *
 * P              15      0.57913(cons'd)      1.06798(cons'd)     -0.01506         *
 * P              16      0.57969(cons'd)     -1.07080(cons'd)      0.01394         *
 * In              1     -0.10645(cons'd)      0.00169(cons'd)     -0.02093         *
 * In              2     -0.22439(cons'd)      0.08172(cons'd)     -0.04838         *
 * In              3      0.02848(cons'd)     -0.00382(cons'd)     -0.01449         *
 * In              4     -0.22439(cons'd)      0.08172(cons'd)     -0.04838         *
 * In              5      0.02849(cons'd)     -0.00381(cons'd)     -0.01449         *
 * In              6     -0.10639(cons'd)     -0.00185(cons'd)      0.02280         *
 * In              7     -0.10638(cons'd)     -0.00185(cons'd)      0.02280         *
 * In              8     -0.35781(cons'd)      0.30769(cons'd)      0.02312         *
 * In              9     -0.10645(cons'd)      0.00169(cons'd)     -0.02093         *
 * In             10      0.02838(cons'd)      0.00370(cons'd)      0.01665         *
 * In             11     -0.22433(cons'd)     -0.08199(cons'd)      0.05001         *
 * In             12     -0.35781(cons'd)      0.30769(cons'd)      0.02312         *
 * In             13      0.02838(cons'd)      0.00370(cons'd)      0.01665         *
 * In             14     -0.22433(cons'd)     -0.08198(cons'd)      0.05001         *
 * In             15     -0.35780(cons'd)     -0.30770(cons'd)     -0.02077         *
 * In             16     -0.35780(cons'd)     -0.30771(cons'd)     -0.02077         *
 *                                                                                  *
 ************************************************************************************
 doing test perturbation to get energy scale for EXP preconditioner

                           -------------------------------
                                     Cell Contents
                           -------------------------------

            xxxxxxxxxxxxxxxxxxxxxxxxxxxxxxxxxxxxxxxxxxxxxxxxxxxxxxxxxxxxxxxxx
            x  Element         Atom        Fractional coordinates of atoms  x
            x                 Number           u          v          w      x
            x---------------------------------------------------------------x
            x  P                 1         0.753649   0.436705   0.375776   x
            x  P                 2         0.251419   0.252861   0.992145   x
            x  P                 3         0.753649   0.348478   0.885532   x
            x  P                 4         0.753649   0.480355   0.123579   x
            x  P                 5         0.251419   0.622125   0.752790   x
            x  P                 6         0.753649   0.981480   0.123579   x
            x  P                 7         0.251419   0.208153   0.247057   x
            x  P                 8         0.251419   0.120622   0.752790   x
            x  P                 9         0.251419   0.709655   0.247057   x
            x  P                10         0.753649   0.893939   0.629370   x
            x  P                11         0.753649   0.937830   0.375776   x
            x  P                12         0.753649   0.392814   0.629370   x
            x  P                13         0.251419   0.164256   0.500682   x
            x  P                14         0.251419   0.665759   0.500682   x
            x  P                15         0.753649   0.849603   0.885532   x
            x  P                16         0.251419   0.754115   0.992145   x
            x  In                1         0.502682   0.186202   0.373885   x
            x  In                2         0.000000   0.370559   0.757956   x
            x  In                3         0.502682   0.643975   0.626545   x
            x  In                4         0.000000   0.871684   0.757956   x
            x  In                5         0.502682   0.142473   0.626545   x
            x  In                6         0.000000   0.915884   0.502573   x
            x  In                7         0.000000   0.414760   0.502573   x
            x  In                8         0.502682   0.600592   0.877199   x
            x  In                9         0.502682   0.687704   0.373885   x
            x  In               10         0.000000   0.458494   0.249883   x
            x  In               11         0.502682   0.731921   0.118410   x
            x  In               12         0.502682   0.099090   0.877199   x
            x  In               13         0.000000   0.959619   0.249883   x
            x  In               14         0.502682   0.230419   0.118410   x
            x  In               15         0.000000   0.000555   1.000475   x
            x  In               16         0.000000   0.502147   1.000475   x
            xxxxxxxxxxxxxxxxxxxxxxxxxxxxxxxxxxxxxxxxxxxxxxxxxxxxxxxxxxxxxxxxx


------------------------------------------------------------------------ <-- SCF
SCF loop      Energy           Fermi           Energy gain       Timer   <-- SCF
                               energy          per atom          (sec)   <-- SCF
------------------------------------------------------------------------ <-- SCF
Initial  -3.14354808E+004  0.00000000E+000                       450.05  <-- SCF
      1  -3.14369419E+004  3.36684857E+000   4.56595784E-002     472.81  <-- SCF
      2  -3.14371371E+004  3.36676440E+000   6.10069858E-003     500.64  <-- SCF
      3  -3.14371389E+004  3.36669666E+000   5.63283046E-005     524.37  <-- SCF
      4  -3.14371404E+004  3.36656803E+000   4.76731972E-005     548.44  <-- SCF
      5  -3.14371406E+004  3.36651912E+000   6.21674214E-006     575.38  <-- SCF
      6  -3.14371407E+004  3.36649611E+000   1.48963072E-006     599.15  <-- SCF
      7  -3.14371407E+004  3.36649486E+000   1.48541552E-007     620.35  <-- SCF
      8  -3.14371407E+004  3.36649369E+000   1.73286684E-008     637.57  <-- SCF
      9  -3.14371407E+004  3.36649229E+000   9.76410060E-010     654.06  <-- SCF
     10  -3.14371407E+004  3.36649059E+000  -1.60672626E-010     670.62  <-- SCF
     11  -3.14371407E+004  3.36648996E+000  -1.50811851E-011     687.14  <-- SCF
------------------------------------------------------------------------ <-- SCF
 
Final energy, E             =  -31437.14012621     eV
Final free energy (E-TS)    =  -31437.14067778     eV
(energies not corrected for finite basis set)
 
NB est. 0K energy (E-0.5TS)      =  -31437.14040200     eV
 

 ************************************** Forces **************************************
 *                                                                                  *
 *                           Cartesian components (eV/A)                            *
 * -------------------------------------------------------------------------------- *
 *                         x                    y                    z              *
 *                                                                                  *
 * P               1     -0.09177(cons'd)     -0.00729(cons'd)      0.00215         *
 * P               2      0.52946(cons'd)     -1.06651(cons'd)     -0.05469         *
 * P               3      0.46970(cons'd)      1.06997(cons'd)      0.00012         *
 * P               4     -0.32310(cons'd)     -0.10778(cons'd)      0.09927         *
 * P               5     -0.10743(cons'd)      0.09147(cons'd)      0.02588         *
 * P               6     -0.26230(cons'd)     -0.21319(cons'd)      0.10728         *
 * P               7      0.20831(cons'd)      0.10516(cons'd)      0.01074         *
 * P               8     -0.06009(cons'd)      0.21402(cons'd)      0.02174         *
 * P               9      0.15914(cons'd)     -0.02317(cons'd)      0.01001         *
 * P              10      0.06553(cons'd)     -0.08683(cons'd)      0.00358         *
 * P              11     -0.02825(cons'd)     -0.09825(cons'd)      0.00484         *
 * P              12      0.00340(cons'd)      0.00513(cons'd)     -0.00035         *
 * P              13      0.10902(cons'd)      0.11577(cons'd)     -0.00129         *
 * P              14      0.06154(cons'd)     -0.01129(cons'd)      0.00058         *
 * P              15      0.51537(cons'd)      0.97241(cons'd)      0.00087         *
 * P              16      0.58875(cons'd)     -1.14589(cons'd)     -0.05189         *
 * In              1     -0.19039(cons'd)      0.08969(cons'd)     -0.02257         *
 * In              2     -0.06766(cons'd)      0.08449(cons'd)     -0.05466         *
 * In              3     -0.00910(cons'd)     -0.01697(cons'd)     -0.01776         *
 * In              4     -0.11326(cons'd)      0.00964(cons'd)     -0.05949         *
 * In              5     -0.05209(cons'd)      0.08396(cons'd)     -0.01845         *
 * In              6      0.00894(cons'd)     -0.07589(cons'd)      0.01995         *
 * In              7      0.06035(cons'd)     -0.00131(cons'd)      0.01924         *
 * In              8     -0.38954(cons'd)      0.28705(cons'd)     -0.00832         *
 * In              9     -0.14822(cons'd)     -0.01141(cons'd)     -0.02264         *
 * In             10      0.19689(cons'd)      0.00774(cons'd)      0.01967         *
 * In             11     -0.21802(cons'd)     -0.08895(cons'd)      0.14414         *
 * In             12     -0.44517(cons'd)      0.40647(cons'd)      0.00915         *
 * In             13      0.14205(cons'd)     -0.07225(cons'd)      0.01866         *
 * In             14     -0.26827(cons'd)      0.00568(cons'd)      0.10938         *
 * In             15     -0.19191(cons'd)     -0.19184(cons'd)     -0.15408         *
 * In             16     -0.15190(cons'd)     -0.32983(cons'd)     -0.16108         *
 *                                                                                  *
 ************************************************************************************
 EXP precond LBFGS => estimated parameter mu :  1.974       eV/A**2
 LBFGS: finished iteration     0 with enthalpy= -3.14371421E+004 eV
  
 +-----------+-----------------+-----------------+------------+-----+ <-- LBFGS
 | Parameter |      value      |    tolerance    |    units   | OK? | <-- LBFGS
 +-----------+-----------------+-----------------+------------+-----+ <-- LBFGS
 |  dE/ion   |   0.000000E+000 |   2.000000E-005 |         eV | No  | <-- LBFGS
 |  |F|max   |   1.289339E+000 |   1.000000E-003 |       eV/A | No  | <-- LBFGS
 |  |dR|max  |   3.720070E-015 |   1.000000E-003 |          A | No  | <-- LBFGS
 +-----------+-----------------+-----------------+------------+-----+ <-- LBFGS
  

================================================================================
 Starting LBFGS iteration          1 ...
================================================================================
  
 +------------+-------------+-------------+-----------------+ <-- min LBFGS
 |    Step    |   lambda    |   F.delta'  |    enthalpy     | <-- min LBFGS
 +------------+-------------+-------------+-----------------+ <-- min LBFGS
 |  previous  |    0.000000 |    0.065702 |   -31437.142111 | <-- min LBFGS
 +------------+-------------+-------------+-----------------+ <-- min LBFGS
  

--------------------------------------------------------------------------------
 LBFGS: starting iteration         1 with trial guess (lambda=  1.000000)
--------------------------------------------------------------------------------

                           -------------------------------
                                     Cell Contents
                           -------------------------------

            xxxxxxxxxxxxxxxxxxxxxxxxxxxxxxxxxxxxxxxxxxxxxxxxxxxxxxxxxxxxxxxxx
            x  Element         Atom        Fractional coordinates of atoms  x
            x                 Number           u          v          w      x
            x---------------------------------------------------------------x
            x  P                 1         0.750000   0.435066   0.375177   x
            x  P                 2         0.250000   0.251579  -0.009121   x
            x  P                 3         0.750000   0.346981   0.884110   x
            x  P                 4         0.750000   0.478642   0.123404   x
            x  P                 5         0.250000   0.619922   0.751562   x
            x  P                 6         0.750000  -0.021358   0.123404   x
            x  P                 7         0.250000   0.207296   0.246735   x
            x  P                 8         0.250000   0.119922   0.751562   x
            x  P                 9         0.250000   0.707296   0.246735   x
            x  P                10         0.750000  -0.108738   0.628265   x
            x  P                11         0.750000  -0.064934   0.375177   x
            x  P                12         0.750000   0.391262   0.628265   x
            x  P                13         0.250000   0.163489   0.499840   x
            x  P                14         0.250000   0.663489   0.499840   x
            x  P                15         0.750000  -0.153019   0.884110   x
            x  P                16         0.250000   0.751579  -0.009121   x
            x  In                1         0.500000   0.185411   0.373182   x
            x  In                2         0.000000   0.369077   0.756447   x
            x  In                3         0.500000   0.641759   0.625392   x
            x  In                4         0.000000  -0.130924   0.756447   x
            x  In                5         0.500000   0.141759   0.625392   x
            x  In                6         0.000000  -0.086857   0.501840   x
            x  In                7         0.000000   0.413143   0.501840   x
            x  In                8         0.500000   0.598387   0.875985   x
            x  In                9         0.500000   0.685411   0.373182   x
            x  In               10         0.000000   0.456797   0.249619   x
            x  In               11         0.500000   0.729482   0.118548   x
            x  In               12         0.500000   0.098387   0.875985   x
            x  In               13         0.000000  -0.043203   0.249619   x
            x  In               14         0.500000   0.229482   0.118548   x
            x  In               15         0.000000   0.000171  -0.000985   x
            x  In               16         0.000000   0.500171  -0.000985   x
            xxxxxxxxxxxxxxxxxxxxxxxxxxxxxxxxxxxxxxxxxxxxxxxxxxxxxxxxxxxxxxxxx


------------------------------------------------------------------------ <-- SCF
SCF loop      Energy           Fermi           Energy gain       Timer   <-- SCF
                               energy          per atom          (sec)   <-- SCF
------------------------------------------------------------------------ <-- SCF
Initial  -3.14353981E+004  0.00000000E+000                       705.44  <-- SCF
      1  -3.14369332E+004  3.36766732E+000   4.79729441E-002     728.23  <-- SCF
      2  -3.14371394E+004  3.36758401E+000   6.44274286E-003     756.09  <-- SCF
      3  -3.14371414E+004  3.36805826E+000   6.19443759E-005     779.86  <-- SCF
      4  -3.14371430E+004  3.36862960E+000   5.02924709E-005     803.99  <-- SCF
      5  -3.14371432E+004  3.36874683E+000   5.94643626E-006     831.04  <-- SCF
      6  -3.14371432E+004  3.36884610E+000   1.47978638E-006     855.10  <-- SCF
      7  -3.14371432E+004  3.36891895E+000   1.58197765E-007     876.40  <-- SCF
      8  -3.14371432E+004  3.36897351E+000   9.19082222E-009     894.95  <-- SCF
      9  -3.14371432E+004  3.36900688E+000  -3.57868788E-009     912.23  <-- SCF
------------------------------------------------------------------------ <-- SCF
 
Final energy, E             =  -31437.14265902     eV
Final free energy (E-TS)    =  -31437.14322861     eV
(energies not corrected for finite basis set)
 
NB est. 0K energy (E-0.5TS)      =  -31437.14294381     eV
 

 ******************************** Constrained Forces ********************************
 *                                                                                  *
 *                           Cartesian components (eV/A)                            *
 * -------------------------------------------------------------------------------- *
 *                         x                    y                    z              *
 *                                                                                  *
 * P               1      0.00000(cons'd)      0.00000(cons'd)      0.01030         *
 * P               2      0.00000(cons'd)     -0.00000(cons'd)      0.02252         *
 * P               3      0.00000(cons'd)      0.00000(cons'd)     -0.02263         *
 * P               4     -0.00000(cons'd)      0.00000(cons'd)     -0.01378         *
 * P               5      0.00000(cons'd)      0.00000(cons'd)      0.01309         *
 * P               6     -0.00000(cons'd)     -0.00000(cons'd)     -0.01377         *
 * P               7      0.00000(cons'd)      0.00000(cons'd)      0.00084         *
 * P               8     -0.00000(cons'd)      0.00000(cons'd)      0.01309         *
 * P               9      0.00000(cons'd)     -0.00000(cons'd)      0.00082         *
 * P              10      0.00000(cons'd)      0.00000(cons'd)     -0.00003         *
 * P              11      0.00000(cons'd)      0.00000(cons'd)      0.01031         *
 * P              12      0.00000(cons'd)      0.00000(cons'd)     -0.00005         *
 * P              13      0.00000(cons'd)      0.00000(cons'd)     -0.01033         *
 * P              14      0.00000(cons'd)      0.00000(cons'd)     -0.01034         *
 * P              15      0.00000(cons'd)      0.00000(cons'd)     -0.02263         *
 * P              16      0.00000(cons'd)     -0.00000(cons'd)      0.02255         *
 * In              1      0.00000(cons'd)      0.00000(cons'd)     -0.00745         *
 * In              2      0.00000(cons'd)      0.00000(cons'd)     -0.01737         *
 * In              3      0.00000(cons'd)      0.00000(cons'd)      0.00236         *
 * In              4      0.00000(cons'd)     -0.00000(cons'd)     -0.01731         *
 * In              5      0.00000(cons'd)      0.00000(cons'd)      0.00237         *
 * In              6      0.00000(cons'd)      0.00000(cons'd)      0.00767         *
 * In              7      0.00000(cons'd)      0.00000(cons'd)      0.00766         *
 * In              8      0.00000(cons'd)      0.00000(cons'd)      0.01656         *
 * In              9      0.00000(cons'd)      0.00000(cons'd)     -0.00744         *
 * In             10      0.00000(cons'd)      0.00000(cons'd)     -0.00280         *
 * In             11      0.00000(cons'd)      0.00000(cons'd)      0.01806         *
 * In             12      0.00000(cons'd)      0.00000(cons'd)      0.01649         *
 * In             13      0.00000(cons'd)      0.00000(cons'd)     -0.00278         *
 * In             14      0.00000(cons'd)      0.00000(cons'd)      0.01818         *
 * In             15      0.00000(cons'd)      0.00000(cons'd)     -0.01710         *
 * In             16      0.00000(cons'd)      0.00000(cons'd)     -0.01707         *
 *                                                                                  *
 ************************************************************************************
  
 +------------+-------------+-------------+-----------------+ <-- min LBFGS
 |    Step    |   lambda    |   F.delta'  |    enthalpy     | <-- min LBFGS
 +------------+-------------+-------------+-----------------+ <-- min LBFGS
 |  previous  |    0.000000 |    0.065702 |   -31437.142111 | <-- min LBFGS
 | trial step |    1.000000 |    0.027631 |   -31437.143229 | <-- min LBFGS
 +------------+-------------+-------------+-----------------+ <-- min LBFGS
  

--------------------------------------------------------------------------------
 LBFGS: improving iteration         1 with line minimization (lambda=  1.725762)
--------------------------------------------------------------------------------

                           -------------------------------
                                     Cell Contents
                           -------------------------------

            xxxxxxxxxxxxxxxxxxxxxxxxxxxxxxxxxxxxxxxxxxxxxxxxxxxxxxxxxxxxxxxxx
            x  Element         Atom        Fractional coordinates of atoms  x
            x                 Number           u          v          w      x
            x---------------------------------------------------------------x
            x  P                 1         0.750000   0.435061   0.375202   x
            x  P                 2         0.250000   0.251564  -0.009036   x
            x  P                 3         0.750000   0.346997   0.884017   x
            x  P                 4         0.750000   0.478637   0.123433   x
            x  P                 5         0.250000   0.619931   0.751508   x
            x  P                 6         0.750000  -0.021363   0.123433   x
            x  P                 7         0.250000   0.207283   0.246809   x
            x  P                 8         0.250000   0.119931   0.751508   x
            x  P                 9         0.250000   0.707283   0.246809   x
            x  P                10         0.750000  -0.108725   0.628192   x
            x  P                11         0.750000  -0.064939   0.375202   x
            x  P                12         0.750000   0.391275   0.628192   x
            x  P                13         0.250000   0.163491   0.499828   x
            x  P                14         0.250000   0.663491   0.499828   x
            x  P                15         0.750000  -0.153003   0.884017   x
            x  P                16         0.250000   0.751564  -0.009036   x
            x  In                1         0.500000   0.185420   0.373130   x
            x  In                2         0.000000   0.369120   0.756195   x
            x  In                3         0.500000   0.641778   0.625280   x
            x  In                4         0.000000  -0.130880   0.756195   x
            x  In                5         0.500000   0.141778   0.625280   x
            x  In                6         0.000000  -0.086869   0.501908   x
            x  In                7         0.000000   0.413131   0.501908   x
            x  In                8         0.500000   0.598378   0.876036   x
            x  In                9         0.500000   0.685420   0.373130   x
            x  In               10         0.000000   0.456776   0.249738   x
            x  In               11         0.500000   0.729439   0.118798   x
            x  In               12         0.500000   0.098378   0.876036   x
            x  In               13         0.000000  -0.043224   0.249738   x
            x  In               14         0.500000   0.229439   0.118798   x
            x  In               15         0.000000   0.000180  -0.001037   x
            x  In               16         0.000000   0.500180  -0.001037   x
            xxxxxxxxxxxxxxxxxxxxxxxxxxxxxxxxxxxxxxxxxxxxxxxxxxxxxxxxxxxxxxxxx


------------------------------------------------------------------------ <-- SCF
SCF loop      Energy           Fermi           Energy gain       Timer   <-- SCF
                               energy          per atom          (sec)   <-- SCF
------------------------------------------------------------------------ <-- SCF
Initial  -3.14371373E+004  0.00000000E+000                       930.40  <-- SCF
      1  -3.14371418E+004  3.36916926E+000   1.41544091E-004     953.21  <-- SCF
      2  -3.14371434E+004  3.36916901E+000   5.12486463E-005     981.27  <-- SCF
      3  -3.14371435E+004  3.36929863E+000   6.32850610E-007    1005.46  <-- SCF
      4  -3.14371435E+004  3.36947835E+000   2.18216241E-007    1028.38  <-- SCF
      5  -3.14371435E+004  3.36955650E+000  -1.32122782E-008    1047.16  <-- SCF
      6  -3.14371435E+004  3.36963121E+000  -1.54796764E-008    1065.63  <-- SCF
      7  -3.14371435E+004  3.36969247E+000  -7.84047611E-009    1083.72  <-- SCF
      8  -3.14371435E+004  3.36973467E+000  -2.01333821E-009    1101.08  <-- SCF
------------------------------------------------------------------------ <-- SCF
 
Final energy, E             =  -31437.14290208     eV
Final free energy (E-TS)    =  -31437.14347187     eV
(energies not corrected for finite basis set)
 
NB est. 0K energy (E-0.5TS)      =  -31437.14318698     eV
 

 ******************************** Constrained Forces ********************************
 *                                                                                  *
 *                           Cartesian components (eV/A)                            *
 * -------------------------------------------------------------------------------- *
 *                         x                    y                    z              *
 *                                                                                  *
 * P               1      0.00000(cons'd)      0.00000(cons'd)      0.01701         *
 * P               2      0.00000(cons'd)      0.00000(cons'd)      0.02891         *
 * P               3      0.00000(cons'd)      0.00000(cons'd)     -0.02794         *
 * P               4      0.00000(cons'd)      0.00000(cons'd)     -0.00877         *
 * P               5      0.00000(cons'd)      0.00000(cons'd)      0.01197         *
 * P               6     -0.00000(cons'd)     -0.00000(cons'd)     -0.00877         *
 * P               7      0.00000(cons'd)     -0.00000(cons'd)      0.00408         *
 * P               8      0.00000(cons'd)      0.00000(cons'd)      0.01197         *
 * P               9      0.00000(cons'd)     -0.00000(cons'd)      0.00408         *
 * P              10      0.00000(cons'd)      0.00000(cons'd)     -0.00230         *
 * P              11      0.00000(cons'd)     -0.00000(cons'd)      0.01701         *
 * P              12      0.00000(cons'd)      0.00000(cons'd)     -0.00230         *
 * P              13      0.00000(cons'd)      0.00000(cons'd)     -0.01821         *
 * P              14      0.00000(cons'd)      0.00000(cons'd)     -0.01821         *
 * P              15      0.00000(cons'd)      0.00000(cons'd)     -0.02794         *
 * P              16      0.00000(cons'd)     -0.00000(cons'd)      0.02891         *
 * In              1      0.00000(cons'd)      0.00000(cons'd)      0.00258         *
 * In              2      0.00000(cons'd)      0.00000(cons'd)      0.00577         *
 * In              3      0.00000(cons'd)      0.00000(cons'd)      0.01492         *
 * In              4      0.00000(cons'd)     -0.00000(cons'd)      0.00577         *
 * In              5      0.00000(cons'd)      0.00000(cons'd)      0.01492         *
 * In              6      0.00000(cons'd)      0.00000(cons'd)     -0.00347         *
 * In              7      0.00000(cons'd)      0.00000(cons'd)     -0.00347         *
 * In              8      0.00000(cons'd)      0.00000(cons'd)      0.01182         *
 * In              9      0.00000(cons'd)      0.00000(cons'd)      0.00258         *
 * In             10     -0.00000(cons'd)      0.00000(cons'd)     -0.01706         *
 * In             11      0.00000(cons'd)      0.00000(cons'd)     -0.00539         *
 * In             12      0.00000(cons'd)      0.00000(cons'd)      0.01182         *
 * In             13     -0.00000(cons'd)      0.00000(cons'd)     -0.01706         *
 * In             14      0.00000(cons'd)      0.00000(cons'd)     -0.00539         *
 * In             15      0.00000(cons'd)      0.00000(cons'd)     -0.01395         *
 * In             16      0.00000(cons'd)      0.00000(cons'd)     -0.01395         *
 *                                                                                  *
 ************************************************************************************
  
 +------------+-------------+-------------+-----------------+ <-- min LBFGS
 |    Step    |   lambda    |   F.delta'  |    enthalpy     | <-- min LBFGS
 +------------+-------------+-------------+-----------------+ <-- min LBFGS
 |  previous  |    0.000000 |    0.065702 |   -31437.142111 | <-- min LBFGS
 | trial step |    1.000000 |    0.027631 |   -31437.143229 | <-- min LBFGS
 |  line step |    1.725762 |   -0.000452 |   -31437.143472 | <-- min LBFGS
 +------------+-------------+-------------+-----------------+ <-- min LBFGS
  
 LBFGS: finished iteration     1 with enthalpy= -3.14371435E+004 eV
  
 +-----------+-----------------+-----------------+------------+-----+ <-- LBFGS
 | Parameter |      value      |    tolerance    |    units   | OK? | <-- LBFGS
 +-----------+-----------------+-----------------+------------+-----+ <-- LBFGS
 |  dE/ion   |   4.251730E-005 |   2.000000E-005 |         eV | No  | <-- LBFGS
 |  |F|max   |   2.891430E-002 |   1.000000E-003 |       eV/A | No  | <-- LBFGS
 |  |dR|max  |   1.002345E-002 |   1.000000E-003 |          A | No  | <-- LBFGS
 +-----------+-----------------+-----------------+------------+-----+ <-- LBFGS
  

================================================================================
 Starting LBFGS iteration          2 ...
================================================================================
  
 +------------+-------------+-------------+-----------------+ <-- min LBFGS
 |    Step    |   lambda    |   F.delta'  |    enthalpy     | <-- min LBFGS
 +------------+-------------+-------------+-----------------+ <-- min LBFGS
 |  previous  |    0.000000 |    0.044033 |   -31437.143472 | <-- min LBFGS
 +------------+-------------+-------------+-----------------+ <-- min LBFGS
  

--------------------------------------------------------------------------------
 LBFGS: starting iteration         2 with trial guess (lambda=  1.000000)
--------------------------------------------------------------------------------

                           -------------------------------
                                     Cell Contents
                           -------------------------------

            xxxxxxxxxxxxxxxxxxxxxxxxxxxxxxxxxxxxxxxxxxxxxxxxxxxxxxxxxxxxxxxxx
            x  Element         Atom        Fractional coordinates of atoms  x
            x                 Number           u          v          w      x
            x---------------------------------------------------------------x
            x  P                 1         0.750000   0.435048   0.375278   x
            x  P                 2         0.250000   0.251535  -0.008867   x
            x  P                 3         0.750000   0.347026   0.883853   x
            x  P                 4         0.750000   0.478653   0.123339   x
            x  P                 5         0.250000   0.619914   0.751609   x
            x  P                 6         0.750000  -0.021347   0.123339   x
            x  P                 7         0.250000   0.207283   0.246808   x
            x  P                 8         0.250000   0.119914   0.751609   x
            x  P                 9         0.250000   0.707283   0.246808   x
            x  P                10         0.750000  -0.108726   0.628197   x
            x  P                11         0.750000  -0.064952   0.375278   x
            x  P                12         0.750000   0.391274   0.628197   x
            x  P                13         0.250000   0.163506   0.499741   x
            x  P                14         0.250000   0.663506   0.499741   x
            x  P                15         0.750000  -0.152974   0.883853   x
            x  P                16         0.250000   0.751535  -0.008867   x
            x  In                1         0.500000   0.185423   0.373109   x
            x  In                2         0.000000   0.369130   0.756138   x
            x  In                3         0.500000   0.641769   0.625336   x
            x  In                4         0.000000  -0.130870   0.756138   x
            x  In                5         0.500000   0.141769   0.625336   x
            x  In                6         0.000000  -0.086871   0.501922   x
            x  In                7         0.000000   0.413129   0.501922   x
            x  In                8         0.500000   0.598361   0.876134   x
            x  In                9         0.500000   0.685423   0.373109   x
            x  In               10        -0.000000   0.456787   0.249676   x
            x  In               11         0.500000   0.729428   0.118863   x
            x  In               12         0.500000   0.098361   0.876134   x
            x  In               13        -0.000000  -0.043213   0.249676   x
            x  In               14         0.500000   0.229428   0.118863   x
            x  In               15         0.000000   0.000197  -0.001137   x
            x  In               16         0.000000   0.500197  -0.001137   x
            xxxxxxxxxxxxxxxxxxxxxxxxxxxxxxxxxxxxxxxxxxxxxxxxxxxxxxxxxxxxxxxxx


------------------------------------------------------------------------ <-- SCF
SCF loop      Energy           Fermi           Energy gain       Timer   <-- SCF
                               energy          per atom          (sec)   <-- SCF
------------------------------------------------------------------------ <-- SCF
Initial  -3.14371644E+004  0.00000000E+000                      1119.23  <-- SCF
      1  -3.14371436E+004  3.36892050E+000  -6.52990679E-004    1142.26  <-- SCF
      2  -3.14371439E+004  3.36892024E+000   1.14133359E-005    1170.08  <-- SCF
      3  -3.14371439E+004  3.36894374E+000  -6.41023838E-008    1193.94  <-- SCF
      4  -3.14371439E+004  3.36894219E+000   1.63543851E-008    1215.09  <-- SCF
      5  -3.14371439E+004  3.36892358E+000   1.20664949E-008    1231.85  <-- SCF
      6  -3.14371439E+004  3.36891258E+000   1.17265881E-009    1248.44  <-- SCF
      7  -3.14371439E+004  3.36890539E+000  -1.68213218E-011    1264.81  <-- SCF
------------------------------------------------------------------------ <-- SCF
 
Final energy, E             =  -31437.14334696     eV
Final free energy (E-TS)    =  -31437.14391781     eV
(energies not corrected for finite basis set)
 
NB est. 0K energy (E-0.5TS)      =  -31437.14363238     eV
 

 ******************************** Constrained Forces ********************************
 *                                                                                  *
 *                           Cartesian components (eV/A)                            *
 * -------------------------------------------------------------------------------- *
 *                         x                    y                    z              *
 *                                                                                  *
 * P               1      0.00000(cons'd)     -0.00000(cons'd)     -0.00028         *
 * P               2      0.00000(cons'd)     -0.00000(cons'd)      0.01569         *
 * P               3      0.00000(cons'd)      0.00000(cons'd)     -0.01350         *
 * P               4     -0.00000(cons'd)      0.00000(cons'd)     -0.00219         *
 * P               5     -0.00000(cons'd)      0.00000(cons'd)      0.00404         *
 * P               6     -0.00000(cons'd)     -0.00000(cons'd)     -0.00219         *
 * P               7      0.00000(cons'd)     -0.00000(cons'd)      0.00582         *
 * P               8     -0.00000(cons'd)      0.00000(cons'd)      0.00404         *
 * P               9      0.00000(cons'd)     -0.00000(cons'd)      0.00582         *
 * P              10      0.00000(cons'd)      0.00000(cons'd)     -0.00522         *
 * P              11      0.00000(cons'd)     -0.00000(cons'd)     -0.00028         *
 * P              12      0.00000(cons'd)      0.00000(cons'd)     -0.00522         *
 * P              13      0.00000(cons'd)      0.00000(cons'd)      0.00055         *
 * P              14      0.00000(cons'd)      0.00000(cons'd)      0.00055         *
 * P              15      0.00000(cons'd)      0.00000(cons'd)     -0.01350         *
 * P              16      0.00000(cons'd)     -0.00000(cons'd)      0.01569         *
 * In              1      0.00000(cons'd)      0.00000(cons'd)      0.00214         *
 * In              2      0.00000(cons'd)      0.00000(cons'd)      0.00354         *
 * In              3      0.00000(cons'd)      0.00000(cons'd)      0.00735         *
 * In              4      0.00000(cons'd)      0.00000(cons'd)      0.00354         *
 * In              5      0.00000(cons'd)      0.00000(cons'd)      0.00735         *
 * In              6      0.00000(cons'd)      0.00000(cons'd)     -0.00299         *
 * In              7      0.00000(cons'd)      0.00000(cons'd)     -0.00299         *
 * In              8      0.00000(cons'd)      0.00000(cons'd)      0.01139         *
 * In              9      0.00000(cons'd)      0.00000(cons'd)      0.00214         *
 * In             10      0.00000(cons'd)      0.00000(cons'd)     -0.00921         *
 * In             11      0.00000(cons'd)      0.00000(cons'd)     -0.00399         *
 * In             12      0.00000(cons'd)      0.00000(cons'd)      0.01139         *
 * In             13      0.00000(cons'd)      0.00000(cons'd)     -0.00921         *
 * In             14      0.00000(cons'd)      0.00000(cons'd)     -0.00399         *
 * In             15      0.00000(cons'd)      0.00000(cons'd)     -0.01313         *
 * In             16      0.00000(cons'd)      0.00000(cons'd)     -0.01313         *
 *                                                                                  *
 ************************************************************************************
  
 +------------+-------------+-------------+-----------------+ <-- min LBFGS
 |    Step    |   lambda    |   F.delta'  |    enthalpy     | <-- min LBFGS
 +------------+-------------+-------------+-----------------+ <-- min LBFGS
 |  previous  |    0.000000 |    0.044033 |   -31437.143472 | <-- min LBFGS
 | trial step |    1.000000 |    0.020157 |   -31437.143918 | <-- min LBFGS
 +------------+-------------+-------------+-----------------+ <-- min LBFGS
  

--------------------------------------------------------------------------------
 LBFGS: improving iteration         2 with line minimization (lambda=  1.844242)
--------------------------------------------------------------------------------

                           -------------------------------
                                     Cell Contents
                           -------------------------------

            xxxxxxxxxxxxxxxxxxxxxxxxxxxxxxxxxxxxxxxxxxxxxxxxxxxxxxxxxxxxxxxxx
            x  Element         Atom        Fractional coordinates of atoms  x
            x                 Number           u          v          w      x
            x---------------------------------------------------------------x
            x  P                 1         0.750000   0.435037   0.375342   x
            x  P                 2         0.250000   0.251510  -0.008724   x
            x  P                 3         0.750000   0.347050   0.883714   x
            x  P                 4         0.750000   0.478667   0.123261   x
            x  P                 5         0.250000   0.619899   0.751693   x
            x  P                 6         0.750000  -0.021334   0.123261   x
            x  P                 7         0.250000   0.207283   0.246807   x
            x  P                 8         0.250000   0.119899   0.751693   x
            x  P                 9         0.250000   0.707283   0.246807   x
            x  P                10         0.750000  -0.108727   0.628202   x
            x  P                11         0.750000  -0.064963   0.375342   x
            x  P                12         0.750000   0.391273   0.628202   x
            x  P                13         0.250000   0.163519   0.499668   x
            x  P                14         0.250000   0.663519   0.499668   x
            x  P                15         0.750000  -0.152951   0.883714   x
            x  P                16         0.250000   0.751510  -0.008724   x
            x  In                1         0.500000   0.185426   0.373091   x
            x  In                2         0.000000   0.369138   0.756091   x
            x  In                3         0.500000   0.641761   0.625384   x
            x  In                4         0.000000  -0.130862   0.756091   x
            x  In                5         0.500000   0.141760   0.625384   x
            x  In                6         0.000000  -0.086873   0.501934   x
            x  In                7         0.000000   0.413127   0.501934   x
            x  In                8         0.500000   0.598347   0.876217   x
            x  In                9         0.500000   0.685427   0.373091   x
            x  In               10        -0.000000   0.456796   0.249623   x
            x  In               11         0.500000   0.729418   0.118918   x
            x  In               12         0.500000   0.098347   0.876217   x
            x  In               13        -0.000000  -0.043204   0.249623   x
            x  In               14         0.500000   0.229418   0.118918   x
            x  In               15         0.000000   0.000211  -0.001222   x
            x  In               16         0.000000   0.500212  -0.001222   x
            xxxxxxxxxxxxxxxxxxxxxxxxxxxxxxxxxxxxxxxxxxxxxxxxxxxxxxxxxxxxxxxxx


------------------------------------------------------------------------ <-- SCF
SCF loop      Energy           Fermi           Energy gain       Timer   <-- SCF
                               energy          per atom          (sec)   <-- SCF
------------------------------------------------------------------------ <-- SCF
Initial  -3.14371616E+004  0.00000000E+000                      1282.96  <-- SCF
      1  -3.14371438E+004  3.36821674E+000  -5.58114724E-004    1305.98  <-- SCF
      2  -3.14371440E+004  3.36821655E+000   8.13273014E-006    1333.81  <-- SCF
      3  -3.14371440E+004  3.36823319E+000  -4.68665228E-008    1357.64  <-- SCF
      4  -3.14371440E+004  3.36822851E+000   1.04297996E-008    1378.40  <-- SCF
      5  -3.14371440E+004  3.36821118E+000   8.34163549E-009    1394.94  <-- SCF
      6  -3.14371440E+004  3.36820080E+000   7.69140439E-010    1411.33  <-- SCF
------------------------------------------------------------------------ <-- SCF
 
Final energy, E             =  -31437.14347276     eV
Final free energy (E-TS)    =  -31437.14404460     eV
(energies not corrected for finite basis set)
 
NB est. 0K energy (E-0.5TS)      =  -31437.14375868     eV
 

 ******************************** Constrained Forces ********************************
 *                                                                                  *
 *                           Cartesian components (eV/A)                            *
 * -------------------------------------------------------------------------------- *
 *                         x                    y                    z              *
 *                                                                                  *
 * P               1      0.00000(cons'd)     -0.00000(cons'd)     -0.01492         *
 * P               2      0.00000(cons'd)     -0.00000(cons'd)      0.00455         *
 * P               3      0.00000(cons'd)      0.00000(cons'd)     -0.00133         *
 * P               4     -0.00000(cons'd)      0.00000(cons'd)      0.00308         *
 * P               5      0.00000(cons'd)      0.00000(cons'd)     -0.00232         *
 * P               6     -0.00000(cons'd)      0.00000(cons'd)      0.00308         *
 * P               7      0.00000(cons'd)      0.00000(cons'd)      0.00709         *
 * P               8      0.00000(cons'd)      0.00000(cons'd)     -0.00231         *
 * P               9      0.00000(cons'd)     -0.00000(cons'd)      0.00709         *
 * P              10      0.00000(cons'd)      0.00000(cons'd)     -0.00749         *
 * P              11      0.00000(cons'd)     -0.00000(cons'd)     -0.01492         *
 * P              12      0.00000(cons'd)      0.00000(cons'd)     -0.00749         *
 * P              13      0.00000(cons'd)      0.00000(cons'd)      0.01643         *
 * P              14      0.00000(cons'd)      0.00000(cons'd)      0.01643         *
 * P              15      0.00000(cons'd)      0.00000(cons'd)     -0.00133         *
 * P              16      0.00000(cons'd)      0.00000(cons'd)      0.00455         *
 * In              1      0.00000(cons'd)      0.00000(cons'd)      0.00192         *
 * In              2      0.00000(cons'd)     -0.00000(cons'd)      0.00201         *
 * In              3     -0.00000(cons'd)      0.00000(cons'd)      0.00144         *
 * In              4      0.00000(cons'd)      0.00000(cons'd)      0.00201         *
 * In              5      0.00000(cons'd)      0.00000(cons'd)      0.00144         *
 * In              6      0.00000(cons'd)      0.00000(cons'd)     -0.00277         *
 * In              7      0.00000(cons'd)      0.00000(cons'd)     -0.00277         *
 * In              8      0.00000(cons'd)      0.00000(cons'd)      0.01093         *
 * In              9      0.00000(cons'd)      0.00000(cons'd)      0.00192         *
 * In             10      0.00000(cons'd)      0.00000(cons'd)     -0.00308         *
 * In             11      0.00000(cons'd)      0.00000(cons'd)     -0.00317         *
 * In             12      0.00000(cons'd)      0.00000(cons'd)      0.01093         *
 * In             13      0.00000(cons'd)      0.00000(cons'd)     -0.00308         *
 * In             14      0.00000(cons'd)      0.00000(cons'd)     -0.00317         *
 * In             15      0.00000(cons'd)      0.00000(cons'd)     -0.01238         *
 * In             16      0.00000(cons'd)      0.00000(cons'd)     -0.01238         *
 *                                                                                  *
 ************************************************************************************
  
 +------------+-------------+-------------+-----------------+ <-- min LBFGS
 |    Step    |   lambda    |   F.delta'  |    enthalpy     | <-- min LBFGS
 +------------+-------------+-------------+-----------------+ <-- min LBFGS
 |  previous  |    0.000000 |    0.044033 |   -31437.143472 | <-- min LBFGS
 | trial step |    1.000000 |    0.020157 |   -31437.143918 | <-- min LBFGS
 |  line step |    1.844242 |    0.000145 |   -31437.144045 | <-- min LBFGS
 +------------+-------------+-------------+-----------------+ <-- min LBFGS
  
 LBFGS: finished iteration     2 with enthalpy= -3.14371440E+004 eV
  
 +-----------+-----------------+-----------------+------------+-----+ <-- LBFGS
 | Parameter |      value      |    tolerance    |    units   | OK? | <-- LBFGS
 +-----------+-----------------+-----------------+------------+-----+ <-- LBFGS
 |  dE/ion   |   1.789770E-005 |   2.000000E-005 |         eV | Yes | <-- LBFGS
 |  |F|max   |   1.643093E-002 |   1.000000E-003 |       eV/A | No  | <-- LBFGS
 |  |dR|max  |   5.207435E-003 |   1.000000E-003 |          A | No  | <-- LBFGS
 +-----------+-----------------+-----------------+------------+-----+ <-- LBFGS
  

================================================================================
 Starting LBFGS iteration          3 ...
================================================================================
  
 +------------+-------------+-------------+-----------------+ <-- min LBFGS
 |    Step    |   lambda    |   F.delta'  |    enthalpy     | <-- min LBFGS
 +------------+-------------+-------------+-----------------+ <-- min LBFGS
 |  previous  |    0.000000 |    0.021475 |   -31437.144045 | <-- min LBFGS
 +------------+-------------+-------------+-----------------+ <-- min LBFGS
  

--------------------------------------------------------------------------------
 LBFGS: starting iteration         3 with trial guess (lambda=  1.000000)
--------------------------------------------------------------------------------

                           -------------------------------
                                     Cell Contents
                           -------------------------------

            xxxxxxxxxxxxxxxxxxxxxxxxxxxxxxxxxxxxxxxxxxxxxxxxxxxxxxxxxxxxxxxxx
            x  Element         Atom        Fractional coordinates of atoms  x
            x                 Number           u          v          w      x
            x---------------------------------------------------------------x
            x  P                 1         0.750000   0.435049   0.375276   x
            x  P                 2         0.250000   0.251499  -0.008664   x
[...]
 * In             15      0.00000(cons'd)      0.00000(cons'd)     -0.00002         *
 * In             16      0.00000(cons'd)      0.00000(cons'd)     -0.00002         *
 *                                                                                  *
 ************************************************************************************

 Pseudo atomic calculation performed for P 3s2 3p3

 Converged in 23 iterations to a total energy of -208.0292 eV

 Pseudo atomic calculation performed for In 4d10 5s2 5p1

 Converged in 42 iterations to a total energy of -1747.4500 eV
Charge spilling parameter for spin component 1 = 0.16%

            Orbital Populations       
     Ion    Atom   Orbital             Charge
  -------------------------------------------
      P     1      S                    1.738
      P     1      Px                   1.313
      P     1      Py                   1.312
      P     1      Pz                   1.309
      P     2      S                    1.770
      P     2      Px                   1.297
      P     2      Py                   1.232
      P     2      Pz                   1.339
      P     3      S                    1.770
      P     3      Px                   1.297
      P     3      Py                   1.232
      P     3      Pz                   1.339
      P     4      S                    1.739
      P     4      Px                   1.312
      P     4      Py                   1.318
      P     4      Pz                   1.300
      P     5      S                    1.739
      P     5      Px                   1.312
      P     5      Py                   1.318
      P     5      Pz                   1.300
      P     6      S                    1.739
      P     6      Px                   1.312
      P     6      Py                   1.318
      P     6      Pz                   1.300
      P     7      S                    1.740
      P     7      Px                   1.311
      P     7      Py                   1.307
      P     7      Pz                   1.310
      P     8      S                    1.739
      P     8      Px                   1.312
      P     8      Py                   1.318
      P     8      Pz                   1.300
      P     9      S                    1.740
      P     9      Px                   1.311
      P     9      Py                   1.307
      P     9      Pz                   1.310
      P    10      S                    1.740
      P    10      Px                   1.311
      P    10      Py                   1.307
      P    10      Pz                   1.310
      P    11      S                    1.738
      P    11      Px                   1.313
      P    11      Py                   1.312
      P    11      Pz                   1.309
      P    12      S                    1.740
      P    12      Px                   1.311
      P    12      Py                   1.307
      P    12      Pz                   1.310
      P    13      S                    1.738
      P    13      Px                   1.313
      P    13      Py                   1.312
      P    13      Pz                   1.309
      P    14      S                    1.738
      P    14      Px                   1.313
      P    14      Py                   1.312
      P    14      Pz                   1.309
      P    15      S                    1.770
      P    15      Px                   1.297
      P    15      Py                   1.232
      P    15      Pz                   1.339
      P    16      S                    1.770
      P    16      Px                   1.297
      P    16      Py                   1.232
      P    16      Pz                   1.339
     In     1      Dzz                  1.998
     In     1      Dzy                  1.999
     In     1      Dzx                  1.997
     In     1      Dxx-yy               1.999
     In     1      Dxy                  1.997
     In     1      S                    1.427
     In     1      Px                   0.480
     In     1      Py                   0.481
     In     1      Pz                   0.480
     In     1      S                   -0.520
     In     2      Dzz                  1.998
     In     2      Dzy                  1.999
     In     2      Dzx                  1.997
     In     2      Dxx-yy               1.999
     In     2      Dxy                  1.997
     In     2      S                    1.426
     In     2      Px                   0.480
     In     2      Py                   0.474
     In     2      Pz                   0.486
     In     2      S                   -0.496
     In     3      Dzz                  1.998
     In     3      Dzy                  1.999
     In     3      Dzx                  1.997
     In     3      Dxx-yy               1.999
     In     3      Dxy                  1.997
     In     3      S                    1.431
     In     3      Px                   0.479
     In     3      Py                   0.484
     In     3      Pz                   0.477
     In     3      S                   -0.526
     In     4      Dzz                  1.998
     In     4      Dzy                  1.999
     In     4      Dzx                  1.997
     In     4      Dxx-yy               1.999
     In     4      Dxy                  1.997
     In     4      S                    1.426
     In     4      Px                   0.480
     In     4      Py                   0.474
     In     4      Pz                   0.486
     In     4      S                   -0.496
     In     5      Dzz                  1.998
     In     5      Dzy                  1.999
     In     5      Dzx                  1.997
     In     5      Dxx-yy               1.999
     In     5      Dxy                  1.997
     In     5      S                    1.431
     In     5      Px                   0.479
     In     5      Py                   0.484
     In     5      Pz                   0.477
     In     5      S                   -0.526
     In     6      Dzz                  1.998
     In     6      Dzy                  1.999
     In     6      Dzx                  1.997
     In     6      Dxx-yy               1.999
     In     6      Dxy                  1.997
     In     6      S                    1.427
     In     6      Px                   0.480
     In     6      Py                   0.481
     In     6      Pz                   0.480
     In     6      S                   -0.520
     In     7      Dzz                  1.998
     In     7      Dzy                  1.999
     In     7      Dzx                  1.997
     In     7      Dxx-yy               1.999
     In     7      Dxy                  1.997
     In     7      S                    1.427
     In     7      Px                   0.480
     In     7      Py                   0.481
     In     7      Pz                   0.480
     In     7      S                   -0.520
     In     8      Dzz                  1.998
     In     8      Dzy                  1.999
     In     8      Dzx                  1.998
     In     8      Dxx-yy               1.999
     In     8      Dxy                  1.997
     In     8      S                    1.388
     In     8      Px                   0.462
     In     8      Py                   0.487
     In     8      Pz                   0.434
     In     8      S                   -0.440
     In     9      Dzz                  1.998
     In     9      Dzy                  1.999
     In     9      Dzx                  1.997
     In     9      Dxx-yy               1.999
     In     9      Dxy                  1.997
     In     9      S                    1.427
     In     9      Px                   0.480
     In     9      Py                   0.481
     In     9      Pz                   0.480
     In     9      S                   -0.520
     In    10      Dzz                  1.998
     In    10      Dzy                  1.999
     In    10      Dzx                  1.997
     In    10      Dxx-yy               1.999
     In    10      Dxy                  1.997
     In    10      S                    1.431
     In    10      Px                   0.479
     In    10      Py                   0.484
     In    10      Pz                   0.477
     In    10      S                   -0.526
     In    11      Dzz                  1.998
     In    11      Dzy                  1.999
     In    11      Dzx                  1.997
     In    11      Dxx-yy               1.999
     In    11      Dxy                  1.997
     In    11      S                    1.426
     In    11      Px                   0.480
     In    11      Py                   0.474
     In    11      Pz                   0.486
     In    11      S                   -0.497
     In    12      Dzz                  1.998
     In    12      Dzy                  1.999
     In    12      Dzx                  1.998
     In    12      Dxx-yy               1.999
     In    12      Dxy                  1.997
     In    12      S                    1.388
     In    12      Px                   0.462
     In    12      Py                   0.487
     In    12      Pz                   0.434
     In    12      S                   -0.440
     In    13      Dzz                  1.998
     In    13      Dzy                  1.999
     In    13      Dzx                  1.997
     In    13      Dxx-yy               1.999
     In    13      Dxy                  1.997
     In    13      S                    1.431
     In    13      Px                   0.479
     In    13      Py                   0.484
     In    13      Pz                   0.477
     In    13      S                   -0.526
     In    14      Dzz                  1.998
     In    14      Dzy                  1.999
     In    14      Dzx                  1.997
     In    14      Dxx-yy               1.999
     In    14      Dxy                  1.997
     In    14      S                    1.426
     In    14      Px                   0.480
     In    14      Py                   0.474
     In    14      Pz                   0.486
     In    14      S                   -0.497
     In    15      Dzz                  1.998
     In    15      Dzy                  1.999
     In    15      Dzx                  1.998
     In    15      Dxx-yy               1.999
     In    15      Dxy                  1.997
     In    15      S                    1.388
     In    15      Px                   0.462
     In    15      Py                   0.487
     In    15      Pz                   0.434
     In    15      S                   -0.440
     In    16      Dzz                  1.998
     In    16      Dzy                  1.999
     In    16      Dzx                  1.998
     In    16      Dxx-yy               1.999
     In    16      Dxy                  1.997
     In    16      S                    1.388
     In    16      Px                   0.462
     In    16      Py                   0.487
     In    16      Pz                   0.434
     In    16      S                   -0.440
  -------------------------------------------
                           Total:     288.000
  -------------------------------------------

     Atomic Populations (Mulliken)
     -----------------------------
Species          Ion     s       p       d       f      Total   Charge (e)
==========================================================================
  P               1     1.738   3.934   0.000   0.000   5.673    -0.673
  P               2     1.770   3.869   0.000   0.000   5.639    -0.639
  P               3     1.770   3.869   0.000   0.000   5.639    -0.639
  P               4     1.739   3.929   0.000   0.000   5.668    -0.668
  P               5     1.739   3.929   0.000   0.000   5.668    -0.668
  P               6     1.739   3.929   0.000   0.000   5.668    -0.668
  P               7     1.740   3.928   0.000   0.000   5.668    -0.668
  P               8     1.739   3.929   0.000   0.000   5.668    -0.668
  P               9     1.740   3.928   0.000   0.000   5.668    -0.668
  P              10     1.740   3.928   0.000   0.000   5.668    -0.668
  P              11     1.738   3.934   0.000   0.000   5.673    -0.673
  P              12     1.740   3.928   0.000   0.000   5.668    -0.668
  P              13     1.738   3.934   0.000   0.000   5.673    -0.673
  P              14     1.738   3.934   0.000   0.000   5.673    -0.673
  P              15     1.770   3.869   0.000   0.000   5.639    -0.639
  P              16     1.770   3.869   0.000   0.000   5.639    -0.639
  In              1     0.907   1.441   9.990   0.000  12.338     0.662
  In              2     0.930   1.441   9.990   0.000  12.360     0.640
  In              3     0.905   1.440   9.990   0.000  12.334     0.666
  In              4     0.930   1.441   9.990   0.000  12.360     0.640
  In              5     0.905   1.440   9.990   0.000  12.334     0.666
  In              6     0.907   1.441   9.990   0.000  12.338     0.662
  In              7     0.907   1.441   9.990   0.000  12.338     0.662
  In              8     0.947   1.382   9.990   0.000  12.320     0.680
  In              9     0.907   1.441   9.990   0.000  12.338     0.662
  In             10     0.905   1.440   9.990   0.000  12.334     0.666
  In             11     0.930   1.441   9.990   0.000  12.360     0.640
  In             12     0.947   1.382   9.991   0.000  12.320     0.680
  In             13     0.905   1.440   9.990   0.000  12.334     0.666
  In             14     0.930   1.441   9.990   0.000  12.360     0.640
  In             15     0.947   1.382   9.990   0.000  12.320     0.680
  In             16     0.947   1.382   9.990   0.000  12.320     0.680
==========================================================================

                 Bond                   Population      Length (A)
======================================================================
              P 6  -- In 15                  0.65        2.55018
              P 4  -- In 16                  0.65        2.55018
              P 5  -- In 8                   0.65        2.55066
              P 8  -- In 12                  0.65        2.55066
              P 1  -- In 9                   0.62        2.55550
              P 11 -- In 1                   0.62        2.55550
              P 11 -- In 9                   0.63        2.55550
              P 1  -- In 1                   0.63        2.55550
              P 14 -- In 7                   0.62        2.55551
              P 13 -- In 6                   0.62        2.55551
              P 14 -- In 6                   0.63        2.55551
              P 13 -- In 7                   0.63        2.55551
              P 9  -- In 10                  0.62        2.55564
              P 7  -- In 13                  0.62        2.55564
              P 9  -- In 13                  0.63        2.55564
              P 7  -- In 10                  0.63        2.55564
              P 10 -- In 5                   0.62        2.55565
              P 12 -- In 3                   0.62        2.55565
              P 10 -- In 3                   0.63        2.55565
              P 12 -- In 5                   0.63        2.55565
              P 4  -- In 11                  0.58        2.55620
              P 6  -- In 14                  0.58        2.55620
              P 6  -- In 11                  0.60        2.55620
              P 4  -- In 14                  0.60        2.55620
              P 8  -- In 4                   0.58        2.55623
              P 5  -- In 2                   0.58        2.55623
              P 5  -- In 4                   0.60        2.55623
              P 8  -- In 2                   0.60        2.55623
              P 16 -- In 16                  0.68        2.55800
              P 2  -- In 15                  0.68        2.55800
              P 16 -- In 15                  0.61        2.55800
              P 2  -- In 16                  0.61        2.55800
              P 15 -- In 12                  0.68        2.55803
              P 3  -- In 8                   0.68        2.55803
              P 15 -- In 8                   0.61        2.55803
              P 3  -- In 12                  0.61        2.55804
              P 14 -- In 3                   0.61        2.56509
              P 13 -- In 5                   0.61        2.56509
              P 11 -- In 13                  0.61        2.56511
              P 1  -- In 10                  0.61        2.56511
              P 5  -- In 3                   0.60        2.57288
              P 8  -- In 5                   0.60        2.57288
              P 6  -- In 13                  0.60        2.57314
              P 4  -- In 10                  0.60        2.57314
              P 9  -- In 9                   0.61        2.57336
              P 7  -- In 1                   0.61        2.57336
              P 10 -- In 6                   0.61        2.57352
              P 12 -- In 7                   0.61        2.57352
              P 13 -- In 1                   0.60        2.57749
              P 14 -- In 9                   0.60        2.57749
              P 1  -- In 7                   0.60        2.57773
              P 11 -- In 6                   0.60        2.57773
              P 16 -- In 11                  0.59        2.59130
              P 2  -- In 14                  0.59        2.59130
              P 15 -- In 4                   0.59        2.59150
              P 3  -- In 2                   0.59        2.59150
              P 7  -- In 14                  0.57        2.59492
              P 9  -- In 11                  0.57        2.59492
              P 12 -- In 2                   0.57        2.59510
              P 10 -- In 4                   0.57        2.59510
              P 3  -- In 16                  0.37        2.81720
              P 15 -- In 15                  0.37        2.81720
              P 2  -- In 12                  0.37        2.81769
              P 16 -- In 8                   0.37        2.81769
======================================================================


     Hirshfeld Analysis
     ------------------
Species   Ion     Hirshfeld Charge (e)
======================================
  P        1                -0.24
  P        2                -0.24
  P        3                -0.24
  P        4                -0.24
  P        5                -0.24
  P        6                -0.24
  P        7                -0.24
  P        8                -0.24
  P        9                -0.24
  P       10                -0.24
  P       11                -0.24
  P       12                -0.24
  P       13                -0.24
  P       14                -0.24
  P       15                -0.24
  P       16                -0.24
  In       1                 0.24
  In       2                 0.23
  In       3                 0.24
  In       4                 0.23
  In       5                 0.24
  In       6                 0.24
  In       7                 0.24
  In       8                 0.25
  In       9                 0.24
  In      10                 0.24
  In      11                 0.23
  In      12                 0.25
  In      13                 0.24
  In      14                 0.23
  In      15                 0.25
  In      16                 0.25
======================================

 
 A BibTeX formatted list of references used in this run has been written to 
 StackingFaultStructs_(1_1_0)_(1_-1_0)_3.bib
 
Initialisation time =     20.28 s
Calculation time    =   2494.75 s
Finalisation time   =      1.78 s
Total time          =   2516.80 s
Peak Memory Use     = 2725152 kB
 
Overall parallel efficiency rating: Mediocre (57%)
 
Data was distributed by:-
G-vector (6-way); efficiency rating: Mediocre (59%)
k-point (40-way); efficiency rating: Excellent (92%)
