 +-------------------------------------------------+
 |                                                 |
 |      CCC   AA    SSS  TTTTT  EEEEE  PPPP        |
 |     C     A  A  S       T    E      P   P       |
 |     C     AAAA   SS     T    EEE    PPPP        |
 |     C     A  A     S    T    E      P           |
 |      CCC  A  A  SSS     T    EEEEE  P           |
 |                                                 |
 +-------------------------------------------------+
 |                                                 |
 | Welcome to Academic Release CASTEP version 24.1 |
 | Ab Initio Total Energy Program                  |
 |                                                 |
 | Authors:                                        |
 | M. Segall, M. Probert, C. Pickard, P. Hasnip,   |
 | S. Clark, K. Refson, J. R. Yates,               |
 | A. Bartok-Partay, M. Payne                      |
 |                                                 |
 | Contributors:                                   |
 | P. Lindan, P. Haynes, J. White, V. Milman,      |
 | N. Govind, M. Gibson, P. Tulip, V. Cocula,      |
 | B. Montanari, D. Quigley, M. Glover,            |
 | L. Bernasconi, A. Perlov, M. Plummer,           |
 | E. McNellis, J. Meyer, J. Gale, D. Jochym       |
 | J. Aarons, B. Walker, R. Gillen, D. Jones       |
 | T. Green, I. J. Bush, C. J. Armstrong,          |
 | E. J. Higgins, E. L. Brown, M. S. McFly,        |
 | J. Wilkins, B-C. Shih, P. J. P. Byrne,          |
 | R. J. Maurer, J. C. Womack, J. Dziedzic,        |
 | L. LeBlanc, T. K. Stenczel, J. Kermode,         |
 | S. Sturniolo, B. Shi, B. Durham, M. Evans,      |
 | M. J. Smith, A. Tamerus, Z. Hawkhead,           |
 | V. Ravindran, T. Hollins, S. A. Joyce,          |
 | R. T. Strong, A. M. Reilly, S. J. Donaldson     |
 |                                                 |
 | Copyright (c) 2000 - 2023                       |
 |                                                 |
 |     Distributed under license from Cambridge    |
 |     Enterprise for academic use only.           |
 |                                                 |
 | Please cite                                     |
 |                                                 |
 |     "First principles methods using CASTEP"     |
 |                                                 |
 |         Zeitschrift fuer Kristallographie       |
 |           220(5-6) pp. 567-570 (2005)           |
 |                                                 |
 | S. J. Clark, M. D. Segall, C. J. Pickard,       |
 | P. J. Hasnip, M. J. Probert, K. Refson,         |
 | M. C. Payne                                     |
 |                                                 |
 |       in all publications arising from          |
 |              your use of CASTEP                 |
 |                                                 |
 +-------------------------------------------------+
 |                                                 |
 |              http://www.castep.org              |
 |                                                 |
 +-------------------------------------------------+



 Compiled for  GNU 11.2.0 on 04-04-2024 18:39:17
 from code version 6355fd106 Castep241_branch Thu Mar 7 17:56:19 2024 +0000
 Compiler: GNU Fortran 11.2.0; Optimisation: FAST
 Comms   : MPI VERSION : CRAY MPICH version 8.1.23.14 (ANL base 3.4a2)
 MATHLIBS: default (LAPACK version 3.10.1)
 FFT Lib : fftw3 version commercial-fftw-3.3.10-sse2-avx-avx2-avx2_128
 Fundamental constants values: CODATA 2018

 Run started: Tue, 29 Jul 2025 20:45:42 +0100

 Atomic calculation performed for P: 1s2 2s2 2p6 3s2 3p3

 Converged in 47 iterations to an ae energy of -9309.074 eV

   ============================================================                
   | Pseudopotential Report - Date of generation 29-07-2025   |                
   ------------------------------------------------------------                
   | Element: P Ionic charge:  5.00 Level of theory: RSCAN    |                
   | Atomic Solver: Koelling-Harmon                           |                
   |                                                          |                
   |               Reference Electronic Structure             |                
   |         Orbital         Occupation         Energy        |                
   |            3s              2.000           -0.535        |                
   |            3p              3.000           -0.209        |                
   |                                                          |                
   |                 Pseudopotential Definition               |                
   |        Beta     l      e      Rc     scheme   norm       |                
   |          1      0   -0.535   1.807     qc      0         |                
   |          2      0    0.250   1.807     qc      0         |                
   |          3      1   -0.209   1.807     qc      0         |                
   |          4      1    0.250   1.807     qc      0         |                
   |          5      2    0.000   1.807     qc      0         |                
   |          6      2    0.250   1.807     qc      0         |                
   |         loc     3    0.000   1.807     pn      0         |                
   |                                                          |                
   | Augmentation charge Rinner = 1.263                       |                
   | Partial core correction Rc = 1.263                       |                
   ------------------------------------------------------------                
   | "3|1.8|4|4|5|30:31:32"                                   |                
   ------------------------------------------------------------                
   |      Author: Chris J. Pickard, Cambridge University      |                
   ============================================================                
 Warning: otfg_output_psp cannot write out meta-GGA pseudopotentials presently.

 Atomic calculation performed for In:
 1s2 2s2 2p6 3s2 3p6 3d10 4s2 4p6 4d10 5s2 5p1

 Converged in 84 iterations to an ae energy of -160093.328 eV

   ============================================================                
   | Pseudopotential Report - Date of generation 29-07-2025   |                
   ------------------------------------------------------------                
   | Element: In Ionic charge: 13.00 Level of theory: RSCAN   |                
   | Atomic Solver: Koelling-Harmon                           |                
   |                                                          |                
   |               Reference Electronic Structure             |                
   |         Orbital         Occupation         Energy        |                
   |            4d             10.000           -0.711        |                
   |            5s              2.000           -0.313        |                
   |            5p              1.000           -0.095        |                
   |                                                          |                
   |                 Pseudopotential Definition               |                
   |        Beta     l      e      Rc     scheme   norm       |                
   |          1      0   -0.313   2.501     qc      0         |                
   |          2      0    0.250   2.501     qc      0         |                
   |          3      1   -0.095   2.501     qc      0         |                
   |          4      1    0.250   2.501     qc      0         |                
   |          5      2   -0.711   2.207     qc      0         |                
   |          6      2    0.250   2.207     qc      0         |                
   |         loc     3    0.000   2.501     pn      0         |                
   |                                                          |                
   | Augmentation charge Rinner = 1.504                       |                
   | Partial core correction Rc = 1.504                       |                
   ------------------------------------------------------------                
   | "3|2.5|2.5|1.5|7|8|9|50:51:42U2.2U2.2"                   |                
   ------------------------------------------------------------                
   |      Author: Chris J. Pickard, Cambridge University      |                
   ============================================================                
 Warning: otfg_output_psp cannot write out meta-GGA pseudopotentials presently.

 Pseudo atomic calculation performed for P 3s2 3p3

 Converged in 23 iterations to a total energy of -208.0292 eV

 Pseudo atomic calculation performed for In 4d10 5s2 5p1

 Converged in 42 iterations to a total energy of -1747.4501 eV
 Calculation parallelised over 108 processes.
 Data is distributed by G-vector(3-way) and k-point(36-way)
 Each process may use up to 16 threads.

 ************************************ Title ************************************
 

 ***************************** General Parameters ******************************
  
 output verbosity                               : normal  (1)
 write checkpoint data to                       : P_Interstitial_Migration_Dumbbell#_Dumbbell+_Singlepoints_7.check
 type of calculation                            : single point energy
 stress calculation                             : off
 density difference calculation                 : off
 electron localisation func (ELF) calculation   : off
 Hirshfeld analysis                             : on
 polarisation (Berry phase) analysis            : off
 molecular orbital projected DOS                : off
 deltaSCF calculation                           : off
 unlimited duration calculation
 timing information                             : on
 memory usage estimate                          : on
 write extra output files                       : on
 write final potential to formatted file        : off
 write final density to formatted file          : off
 write BibTeX reference list                    : on
 write OTFG pseudopotential files               : on
 write electrostatic potential file             : on
 write bands file                               : on
 checkpoint writing                             : off
  
 output         length unit                     : A
 output           mass unit                     : amu
 output           time unit                     : ps
 output         charge unit                     : e
 output           spin unit                     : hbar/2
 output         energy unit                     : eV
 output          force unit                     : eV/A
 output       velocity unit                     : A/ps
 output       pressure unit                     : GPa
 output     inv_length unit                     : 1/A
 output      frequency unit                     : cm-1
 output force constant unit                     : eV/A**2
 output         volume unit                     : A**3
 output   IR intensity unit                     : (D/A)**2/amu
 output         dipole unit                     : D
 output         efield unit                     : eV/A/e
 output        entropy unit                     : J/mol/K
 output    efield chi2 unit                     : pm/V
  
 wavefunctions paging                           : none
 random number generator seed                   :  204542888
 data distribution                              : optimal for this architecture
 optimization strategy                          : balance speed and memory

 *********************** Exchange-Correlation Parameters ***********************
  
 using functional                               : RSCAN
 relativistic treatment                         : Koelling-Harmon
 DFT+D: Semi-empirical dispersion correction    : off

 ************************* Pseudopotential Parameters **************************
  
 pseudopotential representation                 : reciprocal space
 <beta|phi> representation                      : reciprocal space
 spin-orbit coupling                            : off

 **************************** Basis Set Parameters *****************************
  
 plane wave basis set cut-off                   :   900.0000   eV
 size of standard grid                          :     2.0000
 size of   fine   gmax                          :    30.7390   1/A
 finite basis set correction                    : none

 **************************** Electronic Parameters ****************************
  
 number of  electrons                           :  581.0    
 net charge of system                           :  0.000    
 net spin   of system                           :  1.000    
 number of  up  spins                           :  291.0    
 number of down spins                           :  290.0    
 treating system as spin-polarized
 number of bands                                :        349

 ********************* Electronic Minimization Parameters **********************
  
 Method: Treating system as metallic with density mixing treatment of electrons,
         and number of  SD  steps               :          1
         and number of  CG  steps               :          4
  
 total energy / atom convergence tol.           : 0.1000E-07   eV
 eigen-energy convergence tolerance             : 0.2234E-08   eV
 max force / atom convergence tol.              : ignored
 convergence tolerance window                   :          3   cycles
 max. number of SCF cycles                      :        100
 number of fixed-spin iterations                :         10
 smearing scheme                                : Gaussian
 smearing width                                 : 0.2000       eV
 Fermi energy convergence tolerance             : 0.2721E-13   eV
 periodic dipole correction                     : NONE

 ************************** Density Mixing Parameters **************************
  
 density-mixing scheme                          : Pulay
 max. length of mixing history                  :         20
 charge density mixing amplitude                : 0.5000    
   spin density mixing amplitude                :  2.000    
 cut-off energy for mixing                      :  900.0       eV

 *********************** Population Analysis Parameters ************************
  
 Population analysis with cutoff                :  3.000       A
 Population analysis output                     : summary and pdos components

 *******************************************************************************
  

                           -------------------------------
                                      Unit Cell
                           -------------------------------
        Real Lattice(A)                      Reciprocal Lattice(1/A)
    11.8016820    -0.0000080    -0.0000080        0.532397442   0.000000361   0.000000361
    -0.0000080    11.8016820    -0.0000080        0.000000361   0.532397442   0.000000361
    -0.0000080    -0.0000080    11.8016820        0.000000361   0.000000361   0.532397442

                       Lattice parameters(A)       Cell Angles
                    a =     11.801682          alpha =   90.000078
                    b =     11.801682          beta  =   90.000078
                    c =     11.801682          gamma =   90.000078

                       Current cell volume =          1643.734705       A**3
                                   density =             2.857097   AMU/A**3
                                           =             4.744322     g/cm^3

                           -------------------------------
                                     Cell Contents
                           -------------------------------
                         Total number of ions in cell =   65
                      Total number of species in cell =    2
                        Max number of any one species =   33

            xxxxxxxxxxxxxxxxxxxxxxxxxxxxxxxxxxxxxxxxxxxxxxxxxxxxxxxxxxxx
            x  Element    Atom        Fractional coordinates of atoms  x
            x            Number           u          v          w      x
            x----------------------------------------------------------x
            x  P            1         0.118445   0.116957   0.372783   x 
            x  P            2         0.335121   0.052827   0.052630   x 
            x  P            3         0.118445   0.372980   0.116760   x 
            x  P            4         0.378121   0.375040   0.374843   x 
            x  P            5         0.118445   0.117041   0.860822   x 
            x  P            6         0.373896   0.116999   0.616802   x 
            x  P            7         0.124038   0.366686   0.615789   x 
            x  P            8         0.373770   0.366251   0.867550   x 
            x  P            9         0.124038   0.615986   0.366489   x 
            x  P           10         0.373896   0.616999   0.116802   x 
            x  P           11         0.118445   0.861019   0.116844   x 
            x  P           12         0.373770   0.867747   0.366054   x 
            x  P           13         0.124038   0.618012   0.867115   x 
            x  P           14         0.369394   0.616999   0.616802   x 
            x  P           15         0.124038   0.867312   0.617815   x 
            x  P           16         0.378122   0.858957   0.858760   x 
            x  P           17         0.628923   0.114715   0.369784   x 
            x  P           18         0.877322   0.116999   0.116802   x 
            x  P           19         0.628923   0.369981   0.114518   x 
            x  P           20         0.874034   0.367646   0.367449   x 
            x  P           21         0.628923   0.119283   0.863819   x 
            x  P           22         0.870879   0.116999   0.616802   x 
            x  P           23         0.623949   0.367773   0.617837   x 
            x  P           24         0.874914   0.367849   0.865952   x 
            x  P           25         0.623949   0.618034   0.367576   x 
            x  P           26         0.870879   0.616999   0.116802   x 
            x  P           27         0.628923   0.864016   0.119086   x 
            x  P           28         0.874914   0.866149   0.367652   x 
            x  P           29         0.623949   0.615963   0.866028   x 
            x  P           30         0.873822   0.616999   0.616802   x 
            x  P           31         0.623949   0.866225   0.615766   x 
            x  P           32         0.874035   0.866352   0.866155   x 
            x  P           33         0.335120   0.181167   0.180971   x 
            x  In           1         0.000325  -0.009231  -0.009428   x 
            x  In           2         0.236181  -0.015251   0.249053   x 
            x  In           3         0.000325   0.243229   0.243032   x 
            x  In           4         0.236181   0.249250  -0.015448   x 
            x  In           5        -0.004060  -0.008801   0.496011   x 
            x  In           6         0.251016  -0.009290   0.743363   x 
            x  In           7        -0.004060   0.242798   0.737594   x 
            x  In           8         0.251016   0.243288   0.490242   x 
            x  In           9        -0.004060   0.496207  -0.008997   x 
            x  In          10         0.251016   0.490439   0.243091   x 
            x  In          11        -0.004060   0.737791   0.242601   x 
            x  In          12         0.251016   0.743560  -0.009487   x 
            x  In          13        -0.000561   0.492455   0.492258   x 
            x  In          14         0.247316   0.490820   0.742981   x 
            x  In          15        -0.000560   0.741543   0.741346   x 
            x  In          16         0.247316   0.743178   0.490623   x 
            x  In          17         0.516038  -0.021497  -0.021694   x 
            x  In          18         0.753246  -0.007625   0.241425   x 
            x  In          19         0.516037   0.255494   0.255297   x 
            x  In          20         0.753246   0.241622  -0.007821   x 
            x  In          21         0.498290  -0.007951   0.492243   x 
            x  In          22         0.749762  -0.009771   0.740588   x 
            x  In          23         0.498290   0.241949   0.741361   x 
            x  In          24         0.749762   0.243769   0.493016   x 
            x  In          25         0.498290   0.492440  -0.008148   x 
            x  In          26         0.749762   0.493213   0.243572   x 
            x  In          27         0.498290   0.741558   0.241752   x 
            x  In          28         0.749762   0.740785  -0.009968   x 
            x  In          29         0.500110   0.497876   0.497679   x 
            x  In          30         0.749415   0.491635   0.742166   x 
            x  In          31         0.500110   0.736121   0.735924   x 
            x  In          32         0.749415   0.742362   0.491438   x 
            xxxxxxxxxxxxxxxxxxxxxxxxxxxxxxxxxxxxxxxxxxxxxxxxxxxxxxxxxxxx


                         No user defined ionic velocities

                           -------------------------------
                                   Details of Species
                           -------------------------------

                               Mass of species in AMU
                                    P   30.9737600
                                    In  114.8180000

                          Electric Quadrupole Moment (Barn)
                                    P    1.0000000 No Isotope Defined
                                    In    0.7700000 Isotope115

                          Files used for pseudopotentials:
                                    P 3|1.8|4|4|5|30:31:32
                                    In 3|2.5|2.5|1.5|7|8|9|50:51:42U2.2U2.2

                           -------------------------------
                              k-Points For BZ Sampling
                           -------------------------------
                       MP grid size for SCF calculation is  4  4  4
                            with an offset of   0.125  0.125  0.125
                       Number of kpoints used =            36

                           -------------------------------
                               Symmetry and Constraints
                           -------------------------------

                      Maximum deviation from symmetry =  0.00000         ANG

                      Number of symmetry operations   =           1
                      Number of ionic constraints     =           3
                      Point group of crystal =     1: C1, 1, 1
                      Space group of crystal =    35: Cmm2, C 2 -2

             Set iprint > 1 for details on symmetry rotations/translations

                         Centre of mass is constrained
             Set iprint > 1 for details of linear ionic constraints

                         Number of cell constraints= 0
                         Cell constraints are:  1 2 3 4 5 6

                         External pressure/stress (GPa)
                          0.00000   0.00000   0.00000
                                    0.00000   0.00000
                                              0.00000
 
+---------------- MEMORY AND SCRATCH DISK ESTIMATES PER PROCESS --------------+
|                                                     Memory          Disk    |
| Baseline code, static data and system overhead      368.0 MB         0.0 MB |
| BLAS internal memory storage                          0.0 MB         0.0 MB |
| Model and support data                             4327.0 MB         0.0 MB |
| Electronic energy minimisation requirements        1337.1 MB         0.0 MB |
| Force calculation requirements                      127.4 MB         0.0 MB |
|                                               ----------------------------- |
| Approx. total storage required per process         6032.2 MB         0.0 MB |
|                                                                             |
| Requirements will fluctuate during execution and may exceed these estimates |
+-----------------------------------------------------------------------------+
Calculating approximate eigenstates for fixed initial Hamiltonian
Cut-off for approx. calculation is   89.988 eV
Improving approx. states at cut-off of  450.000 eV
Resetting cut-off to  900.000 eV
Calculating total energy with cut-off of  900.000 eV.
------------------------------------------------------------------------ <-- SCF
SCF loop      Energy           Fermi           Energy gain       Timer   <-- SCF
                               energy          per atom          (sec)   <-- SCF
------------------------------------------------------------------------ <-- SCF
Initial  -6.32550487E+004  0.00000000E+000                       445.07  <-- SCF
      1  -6.30179673E+004  2.90262778E+000  -3.64740627E+000     901.46  <-- SCF
      2  -6.30182534E+004  2.90209419E+000   4.40088883E-003    1222.05  <-- SCF
      3  -6.30841887E+004  3.18468080E+000   1.01438970E+000    1591.42  <-- SCF
      4  -6.30958032E+004  3.26880604E+000   1.78685107E-001    2089.96  <-- SCF
      5  -6.31014352E+004  3.44264420E+000   8.66459456E-002    2442.57  <-- SCF
      6  -6.30902925E+004  3.62513603E+000  -1.71426753E-001    2796.45  <-- SCF
      7  -6.30889580E+004  3.67250620E+000  -2.05305123E-002    3156.05  <-- SCF
      8  -6.30891198E+004  3.71242914E+000   2.48974228E-003    3523.61  <-- SCF
      9  -6.30899396E+004  3.73723419E+000   1.26116534E-002    3879.38  <-- SCF
     10  -6.30902095E+004  3.71223549E+000   4.15215930E-003    4227.49  <-- SCF
     11  -6.30902161E+004  3.70519646E+000   1.01369602E-004    4600.59  <-- SCF
     12  -6.30902187E+004  3.69928060E+000   4.01972356E-005    4965.56  <-- SCF
     13  -6.30902198E+004  3.69868050E+000   1.74779919E-005    5325.24  <-- SCF
     14  -6.30902201E+004  3.69771500E+000   4.08334996E-006    5690.63  <-- SCF
     15  -6.30902201E+004  3.69701155E+000   1.02421501E-006    6036.76  <-- SCF
     16  -6.30902202E+004  3.69691824E+000   2.81785217E-007    6345.35  <-- SCF
     17  -6.30902202E+004  3.69678012E+000   7.39593220E-008    6628.35  <-- SCF
     18  -6.30902202E+004  3.69682617E+000   2.55894933E-008    6877.00  <-- SCF
     19  -6.30902202E+004  3.69686844E+000   8.46497703E-009    7125.66  <-- SCF
     20  -6.30902202E+004  3.69687035E+000   2.75908944E-009    7375.61  <-- SCF
     21  -6.30902202E+004  3.69687327E+000   7.48359940E-010    7621.55  <-- SCF
------------------------------------------------------------------------ <-- SCF
 
Integrated Spin Density     =    0.992739     hbar/2
Integrated |Spin Density|   =     1.21816     hbar/2
 
Final energy, E             =  -63090.21557832     eV
Final free energy (E-TS)    =  -63090.22017278     eV
(energies not corrected for finite basis set)
 
NB est. 0K energy (E-0.5TS)      =  -63090.21787555     eV
 

 ************************** Forces **************************
 *                                                          *
 *               Cartesian components (eV/A)                *
 * -------------------------------------------------------- *
 *                         x            y            z      *
 *                                                          *
 * P               1      0.02448     -0.00774      0.00680 *
 * P               2      0.00079      0.03334      0.03329 *
 * P               3      0.02431      0.00660     -0.00824 *
 * P               4     -0.01886     -0.02659     -0.02724 *
 * P               5      0.02460      0.00946     -0.00724 *
 * P               6     -0.02871      0.00066      0.00033 *
 * P               7     -0.00099     -0.01674      0.01439 *
 * P               8      0.03721     -0.00565      0.00643 *
 * P               9     -0.00098      0.01463     -0.01710 *
 * P              10     -0.02871      0.00066      0.00033 *
 * P              11      0.02475     -0.00767      0.00898 *
 * P              12      0.03714      0.00665     -0.00599 *
 * P              13     -0.00124     -0.01391      0.01775 *
 * P              14      0.04467      0.00081      0.00021 *
 * P              15     -0.00123      0.01806     -0.01397 *
 * P              16     -0.01871      0.02827      0.02765 *
 * P              17      0.00215      0.01182     -0.01097 *
 * P              18      0.00028      0.00075      0.00022 *
 * P              19      0.00223     -0.01180      0.01191 *
 * P              20      0.01768      0.01480      0.01460 *
 * P              21      0.00220     -0.01280      0.00984 *
 * P              22      0.02419      0.00098      0.00043 *
 * P              23     -0.01946      0.02047      0.01312 *
 * P              24      0.01615      0.00170     -0.00130 *
 * P              25     -0.01947      0.01315      0.02032 *
 * P              26      0.02418      0.00102      0.00040 *
 * P              27      0.00211      0.00929     -0.01239 *
 * P              28      0.01610     -0.00097      0.00152 *
 * P              29     -0.01916     -0.01247     -0.01974 *
 * P              30     -0.00763      0.00067      0.00033 *
 * P              31     -0.01918     -0.01944     -0.01269 *
 * P              32      0.01792     -0.01372     -0.01404 *
 * P              33      0.00110     -0.03339     -0.03336 *
 * In              1     -0.04811      0.02638      0.02658 *
 * In              2     -0.07821     -0.01240      0.01192 *
 * In              3     -0.04809     -0.02706     -0.02685 *
 * In              4     -0.07821      0.01175     -0.01223 *
 * In              5     -0.02115      0.01659     -0.01572 *
 * In              6      0.00738      0.01748     -0.02036 *
 * In              7     -0.02115     -0.01727      0.01541 *
 * In              8      0.00736     -0.01819      0.02008 *
 * In              9     -0.02116     -0.01594      0.01677 *
 * In             10      0.00736      0.01989     -0.01798 *
 * In             11     -0.02114      0.01520     -0.01708 *
 * In             12      0.00737     -0.02055      0.01769 *
 * In             13     -0.00847      0.01083      0.01103 *
 * In             14     -0.02726      0.03998     -0.04048 *
 * In             15     -0.00847     -0.01151     -0.01131 *
 * In             16     -0.02725     -0.04068      0.04018 *
 * In             17      0.03749     -0.00487     -0.00468 *
 * In             18     -0.01190     -0.03083      0.03036 *
 * In             19      0.03750      0.00417      0.00436 *
 * In             20     -0.01191      0.03016     -0.03064 *
 * In             21      0.04256      0.05020     -0.00523 *
 * In             22     -0.01122      0.05244     -0.01017 *
 * In             23      0.04257     -0.05086      0.00497 *
 * In             24     -0.01120     -0.05312      0.00991 *
 * In             25      0.04256     -0.00541      0.05039 *
 * In             26     -0.01121      0.00970     -0.05291 *
 * In             27      0.04257      0.00478     -0.05067 *
 * In             28     -0.01122     -0.01038      0.05265 *
 * In             29     -0.00311     -0.02305     -0.02285 *
 * In             30      0.02446     -0.00329      0.00280 *
 * In             31     -0.00311      0.02235      0.02257 *
 * In             32      0.02446      0.00260     -0.00309 *
 *                                                          *
 ************************************************************

 Pseudo atomic calculation performed for P 3s2 3p3

 Converged in 23 iterations to a total energy of -208.0292 eV

 Pseudo atomic calculation performed for In 4d10 5s2 5p1

 Converged in 42 iterations to a total energy of -1747.4501 eV
Charge spilling parameter for spin component 1 = 0.18%
Charge spilling parameter for spin component 2 = 0.18%

                   Orbital Populations                  
  ---------------------------------------------------------------
     Ion    Atom   Orbital              Up        Down      Spin
  ---------------------------------------------------------------
      P     1      S                    0.873     0.867     0.005
      P     1      Px                   0.660     0.644     0.017
      P     1      Py                   0.651     0.645     0.006
      P     1      Pz                   0.655     0.646     0.008
      P     2      S                    0.897     0.889     0.009
      P     2      Px                   0.718     0.709     0.009
      P     2      Py                   0.658     0.462     0.196
      P     2      Pz                   0.658     0.462     0.196
      P     3      S                    0.873     0.867     0.005
      P     3      Px                   0.660     0.644     0.017
      P     3      Py                   0.655     0.646     0.008
      P     3      Pz                   0.651     0.645     0.006
      P     4      S                    0.866     0.866    -0.000
      P     4      Px                   0.647     0.648    -0.000
      P     4      Py                   0.659     0.658     0.001
      P     4      Pz                   0.659     0.658     0.001
      P     5      S                    0.873     0.867     0.005
      P     5      Px                   0.660     0.644     0.017
      P     5      Py                   0.651     0.645     0.006
      P     5      Pz                   0.655     0.646     0.008
      P     6      S                    0.867     0.867    -0.000
      P     6      Px                   0.658     0.659    -0.000
      P     6      Py                   0.657     0.657    -0.000
      P     6      Pz                   0.655     0.655    -0.000
      P     7      S                    0.867     0.867    -0.000
      P     7      Px                   0.656     0.656    -0.000
      P     7      Py                   0.658     0.658    -0.000
      P     7      Pz                   0.656     0.656    -0.000
      P     8      S                    0.868     0.868    -0.000
      P     8      Px                   0.653     0.654    -0.001
      P     8      Py                   0.658     0.658    -0.001
      P     8      Pz                   0.658     0.658    -0.001
      P     9      S                    0.867     0.867    -0.000
      P     9      Px                   0.656     0.656    -0.000
      P     9      Py                   0.656     0.656    -0.000
      P     9      Pz                   0.658     0.658    -0.000
      P    10      S                    0.867     0.867    -0.000
      P    10      Px                   0.658     0.659    -0.000
      P    10      Py                   0.655     0.655    -0.000
      P    10      Pz                   0.657     0.657    -0.000
      P    11      S                    0.873     0.867     0.005
      P    11      Px                   0.660     0.644     0.017
      P    11      Py                   0.655     0.646     0.008
      P    11      Pz                   0.651     0.645     0.006
      P    12      S                    0.868     0.868    -0.000
      P    12      Px                   0.653     0.654    -0.001
      P    12      Py                   0.658     0.658    -0.001
      P    12      Pz                   0.658     0.658    -0.001
      P    13      S                    0.867     0.867    -0.000
      P    13      Px                   0.656     0.656    -0.000
      P    13      Py                   0.656     0.656    -0.000
      P    13      Pz                   0.658     0.658    -0.000
      P    14      S                    0.864     0.864    -0.000
      P    14      Px                   0.653     0.653    -0.001
      P    14      Py                   0.661     0.662    -0.001
      P    14      Pz                   0.661     0.662    -0.001
      P    15      S                    0.867     0.867    -0.000
      P    15      Px                   0.656     0.656    -0.000
      P    15      Py                   0.658     0.658    -0.000
      P    15      Pz                   0.656     0.656    -0.000
      P    16      S                    0.866     0.866    -0.000
      P    16      Px                   0.647     0.648    -0.000
      P    16      Py                   0.659     0.658     0.001
      P    16      Pz                   0.659     0.658     0.001
      P    17      S                    0.868     0.866     0.002
      P    17      Px                   0.663     0.659     0.005
      P    17      Py                   0.651     0.648     0.002
      P    17      Pz                   0.661     0.659     0.002
      P    18      S                    0.867     0.867    -0.000
      P    18      Px                   0.657     0.657    -0.000
      P    18      Py                   0.657     0.657    -0.000
      P    18      Pz                   0.657     0.657    -0.000
      P    19      S                    0.868     0.866     0.002
      P    19      Px                   0.663     0.659     0.005
      P    19      Py                   0.661     0.659     0.002
      P    19      Pz                   0.651     0.648     0.002
      P    20      S                    0.867     0.867    -0.000
      P    20      Px                   0.656     0.656    -0.000
      P    20      Py                   0.657     0.657    -0.000
      P    20      Pz                   0.657     0.657    -0.000
      P    21      S                    0.868     0.866     0.002
      P    21      Px                   0.663     0.659     0.005
      P    21      Py                   0.651     0.648     0.002
      P    21      Pz                   0.661     0.659     0.002
      P    22      S                    0.864     0.864     0.001
      P    22      Px                   0.662     0.659     0.003
      P    22      Py                   0.654     0.653     0.001
      P    22      Pz                   0.663     0.660     0.003
      P    23      S                    0.867     0.867     0.000
      P    23      Px                   0.657     0.657     0.000
      P    23      Py                   0.656     0.656     0.000
      P    23      Pz                   0.658     0.658     0.000
      P    24      S                    0.866     0.866    -0.000
      P    24      Px                   0.659     0.659    -0.000
      P    24      Py                   0.656     0.656     0.000
      P    24      Pz                   0.656     0.656     0.000
      P    25      S                    0.867     0.867     0.000
      P    25      Px                   0.657     0.657     0.000
      P    25      Py                   0.658     0.658     0.000
      P    25      Pz                   0.656     0.656     0.000
      P    26      S                    0.864     0.864     0.001
      P    26      Px                   0.662     0.659     0.003
      P    26      Py                   0.663     0.660     0.003
      P    26      Pz                   0.654     0.653     0.001
      P    27      S                    0.868     0.866     0.002
      P    27      Px                   0.663     0.659     0.005
      P    27      Py                   0.661     0.659     0.002
      P    27      Pz                   0.651     0.648     0.002
      P    28      S                    0.866     0.866    -0.000
      P    28      Px                   0.659     0.659    -0.000
      P    28      Py                   0.656     0.656     0.000
      P    28      Pz                   0.656     0.656     0.000
      P    29      S                    0.867     0.867     0.000
      P    29      Px                   0.657     0.657     0.000
      P    29      Py                   0.658     0.658     0.000
      P    29      Pz                   0.656     0.656     0.000
      P    30      S                    0.867     0.867    -0.000
      P    30      Px                   0.656     0.656    -0.000
      P    30      Py                   0.657     0.657     0.000
      P    30      Pz                   0.657     0.657     0.000
      P    31      S                    0.867     0.867     0.000
      P    31      Px                   0.657     0.657     0.000
      P    31      Py                   0.656     0.656     0.000
      P    31      Pz                   0.658     0.658     0.000
      P    32      S                    0.867     0.867    -0.000
      P    32      Px                   0.656     0.656    -0.000
      P    32      Py                   0.657     0.657    -0.000
      P    32      Pz                   0.657     0.657    -0.000
      P    33      S                    0.897     0.888     0.009
      P    33      Px                   0.718     0.709     0.009
      P    33      Py                   0.658     0.462     0.196
      P    33      Pz                   0.658     0.462     0.196
     In     1      Dzz                  1.000     1.000     0.000
     In     1      Dzy                  0.998     0.998    -0.000
     In     1      Dzx                  0.999     0.999     0.000
     In     1      Dxx-yy               1.000     1.000    -0.000
     In     1      Dxy                  0.999     0.999     0.000
     In     1      S                    0.705     0.706    -0.001
     In     1      Px                   0.233     0.233    -0.001
     In     1      Py                   0.243     0.241     0.002
     In     1      Pz                   0.243     0.241     0.002
     In     1      S                   -0.253    -0.258     0.004
     In     2      Dzz                  0.999     0.999     0.000
     In     2      Dzy                  0.999     0.999     0.000
     In     2      Dzx                  0.999     0.998     0.001
     In     2      Dxx-yy               1.000     0.999     0.000
     In     2      Dxy                  0.999     0.998     0.001
     In     2      S                    0.688     0.702    -0.013
     In     2      Px                   0.233     0.240    -0.007
     In     2      Py                   0.234     0.239    -0.005
     In     2      Pz                   0.234     0.239    -0.005
     In     2      S                   -0.267    -0.263    -0.004
     In     3      Dzz                  1.000     1.000     0.000
     In     3      Dzy                  0.998     0.998    -0.000
     In     3      Dzx                  0.999     0.999     0.000
     In     3      Dxx-yy               1.000     1.000    -0.000
     In     3      Dxy                  0.999     0.999     0.000
     In     3      S                    0.705     0.706    -0.001
     In     3      Px                   0.233     0.233    -0.001
     In     3      Py                   0.243     0.241     0.002
     In     3      Pz                   0.243     0.241     0.002
     In     3      S                   -0.253    -0.258     0.004
     In     4      Dzz                  0.999     0.999     0.000
     In     4      Dzy                  0.999     0.999     0.000
     In     4      Dzx                  0.999     0.998     0.001
     In     4      Dxx-yy               1.000     0.999     0.000
     In     4      Dxy                  0.999     0.998     0.001
     In     4      S                    0.688     0.702    -0.013
     In     4      Px                   0.233     0.240    -0.007
     In     4      Py                   0.234     0.239    -0.005
     In     4      Pz                   0.234     0.239    -0.005
     In     4      S                   -0.267    -0.263    -0.004
     In     5      Dzz                  1.000     1.000     0.000
     In     5      Dzy                  0.998     0.998     0.000
     In     5      Dzx                  0.998     0.998    -0.000
     In     5      Dxx-yy               1.000     1.000     0.000
     In     5      Dxy                  0.998     0.998    -0.000
     In     5      S                    0.716     0.715     0.001
     In     5      Px                   0.241     0.241    -0.000
     In     5      Py                   0.251     0.247     0.004
     In     5      Pz                   0.242     0.241     0.001
     In     5      S                   -0.268    -0.269     0.001
     In     6      Dzz                  1.000     1.000     0.000
     In     6      Dzy                  0.999     0.999     0.000
     In     6      Dzx                  0.999     0.999     0.000
     In     6      Dxx-yy               1.000     1.000     0.000
     In     6      Dxy                  0.998     0.998     0.000
     In     6      S                    0.705     0.705    -0.001
     In     6      Px                   0.240     0.241    -0.001
     In     6      Py                   0.241     0.240     0.001
     In     6      Pz                   0.232     0.233    -0.000
     In     6      S                   -0.255    -0.255     0.001
     In     7      Dzz                  1.000     1.000    -0.000
     In     7      Dzy                  0.998     0.998     0.000
     In     7      Dzx                  0.998     0.998    -0.000
     In     7      Dxx-yy               1.000     1.000     0.000
     In     7      Dxy                  0.998     0.998    -0.000
     In     7      S                    0.716     0.715     0.001
     In     7      Px                   0.241     0.241    -0.000
     In     7      Py                   0.251     0.247     0.004
     In     7      Pz                   0.242     0.241     0.001
     In     7      S                   -0.268    -0.269     0.001
     In     8      Dzz                  1.000     1.000     0.000
     In     8      Dzy                  0.999     0.999     0.000
     In     8      Dzx                  0.999     0.999     0.000
     In     8      Dxx-yy               1.000     1.000     0.000
     In     8      Dxy                  0.998     0.998     0.000
     In     8      S                    0.705     0.705    -0.001
     In     8      Px                   0.240     0.241    -0.001
     In     8      Py                   0.241     0.240     0.001
     In     8      Pz                   0.232     0.233    -0.000
     In     8      S                   -0.255    -0.255     0.001
     In     9      Dzz                  1.000     1.000     0.000
     In     9      Dzy                  0.998     0.998     0.000
     In     9      Dzx                  0.998     0.998    -0.000
     In     9      Dxx-yy               1.000     1.000     0.000
     In     9      Dxy                  0.998     0.998    -0.000
     In     9      S                    0.716     0.715     0.001
     In     9      Px                   0.241     0.241    -0.000
     In     9      Py                   0.242     0.241     0.001
     In     9      Pz                   0.251     0.247     0.004
     In     9      S                   -0.268    -0.269     0.001
     In    10      Dzz                  1.000     1.000     0.000
     In    10      Dzy                  0.999     0.999    -0.000
     In    10      Dzx                  0.998     0.998     0.000
     In    10      Dxx-yy               1.000     1.000     0.000
     In    10      Dxy                  0.999     0.999     0.000
     In    10      S                    0.705     0.705    -0.001
     In    10      Px                   0.240     0.241    -0.001
     In    10      Py                   0.232     0.233    -0.000
     In    10      Pz                   0.241     0.240     0.001
     In    10      S                   -0.255    -0.255     0.001
     In    11      Dzz                  1.000     1.000     0.000
     In    11      Dzy                  0.998     0.998     0.000
     In    11      Dzx                  0.998     0.998    -0.000
     In    11      Dxx-yy               1.000     1.000     0.000
     In    11      Dxy                  0.998     0.998    -0.000
     In    11      S                    0.716     0.715     0.001
     In    11      Px                   0.241     0.241    -0.000
     In    11      Py                   0.242     0.241     0.001
     In    11      Pz                   0.251     0.247     0.004
     In    11      S                   -0.268    -0.269     0.001
     In    12      Dzz                  1.000     1.000     0.000
     In    12      Dzy                  0.999     0.999     0.000
     In    12      Dzx                  0.998     0.998     0.000
     In    12      Dxx-yy               1.000     1.000     0.000
     In    12      Dxy                  0.999     0.999     0.000
     In    12      S                    0.705     0.705    -0.001
     In    12      Px                   0.240     0.241    -0.001
     In    12      Py                   0.232     0.233    -0.000
     In    12      Pz                   0.241     0.240     0.001
     In    12      S                   -0.255    -0.255     0.001
     In    13      Dzz                  1.000     1.000     0.000
     In    13      Dzy                  0.998     0.998    -0.000
     In    13      Dzx                  0.998     0.998    -0.000
     In    13      Dxx-yy               1.000     1.000    -0.000
     In    13      Dxy                  0.998     0.998    -0.000
     In    13      S                    0.706     0.706    -0.000
     In    13      Px                   0.242     0.242     0.000
     In    13      Py                   0.241     0.241    -0.000
     In    13      Pz                   0.241     0.241    -0.000
     In    13      S                   -0.265    -0.265     0.000
     In    14      Dzz                  1.000     1.000    -0.000
     In    14      Dzy                  0.998     0.998    -0.000
     In    14      Dzx                  0.998     0.998     0.000
     In    14      Dxx-yy               1.000     1.000    -0.000
     In    14      Dxy                  0.998     0.998     0.000
     In    14      S                    0.708     0.707     0.001
     In    14      Px                   0.240     0.240    -0.001
     In    14      Py                   0.241     0.240     0.000
     In    14      Pz                   0.241     0.240     0.000
     In    14      S                   -0.265    -0.267     0.001
     In    15      Dzz                  1.000     1.000     0.000
     In    15      Dzy                  0.998     0.998     0.000
     In    15      Dzx                  0.998     0.998    -0.000
     In    15      Dxx-yy               1.000     1.000     0.000
     In    15      Dxy                  0.998     0.998    -0.000
     In    15      S                    0.706     0.706    -0.000
     In    15      Px                   0.242     0.242     0.000
     In    15      Py                   0.241     0.241    -0.000
     In    15      Pz                   0.241     0.241    -0.000
     In    15      S                   -0.265    -0.265     0.000
     In    16      Dzz                  1.000     1.000    -0.000
     In    16      Dzy                  0.998     0.998    -0.000
     In    16      Dzx                  0.998     0.998    -0.000
     In    16      Dxx-yy               1.000     1.000    -0.000
     In    16      Dxy                  0.998     0.998    -0.000
     In    16      S                    0.708     0.707     0.001
     In    16      Px                   0.240     0.240    -0.001
     In    16      Py                   0.241     0.240     0.000
     In    16      Pz                   0.241     0.240     0.000
     In    16      S                   -0.266    -0.267     0.001
     In    17      Dzz                  0.999     0.999     0.000
     In    17      Dzy                  0.998     0.998     0.000
     In    17      Dzx                  0.998     0.998     0.000
     In    17      Dxx-yy               0.999     0.999     0.000
     In    17      Dxy                  0.998     0.998     0.000
     In    17      S                    0.712     0.721    -0.009
     In    17      Px                   0.245     0.252    -0.007
     In    17      Py                   0.246     0.246    -0.000
     In    17      Pz                   0.246     0.246    -0.000
     In    17      S                   -0.265    -0.267     0.001
     In    18      Dzz                  1.000     1.000     0.000
     In    18      Dzy                  0.998     0.998    -0.000
     In    18      Dzx                  0.998     0.998    -0.000
     In    18      Dxx-yy               1.000     1.000    -0.000
     In    18      Dxy                  0.998     0.998    -0.000
     In    18      S                    0.712     0.713    -0.000
     In    18      Px                   0.239     0.239    -0.000
     In    18      Py                   0.241     0.240     0.001
     In    18      Pz                   0.241     0.240     0.001
     In    18      S                   -0.270    -0.270     0.000
     In    19      Dzz                  0.999     0.999     0.000
     In    19      Dzy                  0.998     0.998     0.000
     In    19      Dzx                  0.998     0.998     0.000
     In    19      Dxx-yy               0.999     0.999     0.000
     In    19      Dxy                  0.998     0.998     0.000
     In    19      S                    0.712     0.721    -0.009
     In    19      Px                   0.245     0.252    -0.007
     In    19      Py                   0.246     0.246    -0.000
     In    19      Pz                   0.246     0.246    -0.000
     In    19      S                   -0.265    -0.267     0.001
     In    20      Dzz                  1.000     1.000     0.000
     In    20      Dzy                  0.998     0.998    -0.000
     In    20      Dzx                  0.998     0.998    -0.000
     In    20      Dxx-yy               1.000     1.000    -0.000
     In    20      Dxy                  0.998     0.998     0.000
     In    20      S                    0.712     0.713    -0.000
     In    20      Px                   0.239     0.239    -0.000
     In    20      Py                   0.241     0.240     0.001
     In    20      Pz                   0.241     0.240     0.001
     In    20      S                   -0.270    -0.270     0.000
     In    21      Dzz                  1.000     1.000     0.000
     In    21      Dzy                  0.999     0.999    -0.000
     In    21      Dzx                  0.998     0.998    -0.000
     In    21      Dxx-yy               1.000     1.000     0.000
     In    21      Dxy                  0.998     0.998     0.000
     In    21      S                    0.712     0.712    -0.000
     In    21      Px                   0.240     0.240    -0.000
     In    21      Py                   0.240     0.239     0.000
     In    21      Pz                   0.239     0.239     0.000
     In    21      S                   -0.267    -0.270     0.003
     In    22      Dzz                  1.000     1.000     0.000
     In    22      Dzy                  0.998     0.998     0.000
     In    22      Dzx                  0.998     0.998    -0.000
     In    22      Dxx-yy               1.000     1.000     0.000
     In    22      Dxy                  0.998     0.998     0.000
     In    22      S                    0.708     0.707     0.001
     In    22      Px                   0.238     0.239    -0.000
     In    22      Py                   0.247     0.245     0.002
     In    22      Pz                   0.240     0.239     0.000
     In    22      S                   -0.265    -0.265    -0.001
     In    23      Dzz                  1.000     1.000     0.000
     In    23      Dzy                  0.999     0.999    -0.000
     In    23      Dzx                  0.998     0.998    -0.000
     In    23      Dxx-yy               1.000     1.000    -0.000
     In    23      Dxy                  0.998     0.998     0.000
     In    23      S                    0.712     0.712    -0.000
     In    23      Px                   0.240     0.240    -0.000
     In    23      Py                   0.240     0.239     0.000
     In    23      Pz                   0.239     0.239     0.000
     In    23      S                   -0.267    -0.270     0.003
     In    24      Dzz                  1.000     1.000     0.000
     In    24      Dzy                  0.998     0.998     0.000
     In    24      Dzx                  0.998     0.998    -0.000
     In    24      Dxx-yy               1.000     1.000     0.000
     In    24      Dxy                  0.998     0.998     0.000
     In    24      S                    0.708     0.707     0.001
     In    24      Px                   0.238     0.239    -0.000
     In    24      Py                   0.247     0.245     0.002
     In    24      Pz                   0.240     0.239     0.000
     In    24      S                   -0.265    -0.265    -0.001
     In    25      Dzz                  1.000     1.000     0.000
     In    25      Dzy                  0.999     0.999    -0.000
     In    25      Dzx                  0.998     0.998     0.000
     In    25      Dxx-yy               1.000     1.000    -0.000
     In    25      Dxy                  0.998     0.998    -0.000
     In    25      S                    0.712     0.712    -0.000
     In    25      Px                   0.240     0.240    -0.000
     In    25      Py                   0.239     0.239     0.000
     In    25      Pz                   0.240     0.239     0.000
     In    25      S                   -0.267    -0.270     0.003
     In    26      Dzz                  1.000     1.000     0.000
     In    26      Dzy                  0.998     0.998     0.000
     In    26      Dzx                  0.998     0.998     0.000
     In    26      Dxx-yy               1.000     1.000     0.000
     In    26      Dxy                  0.998     0.998    -0.000
     In    26      S                    0.708     0.707     0.001
     In    26      Px                   0.238     0.239    -0.000
     In    26      Py                   0.240     0.239     0.000
     In    26      Pz                   0.247     0.245     0.002
     In    26      S                   -0.265    -0.265    -0.001
     In    27      Dzz                  1.000     1.000     0.000
     In    27      Dzy                  0.999     0.999    -0.000
     In    27      Dzx                  0.998     0.998     0.000
     In    27      Dxx-yy               1.000     1.000    -0.000
     In    27      Dxy                  0.998     0.998     0.000
     In    27      S                    0.712     0.712    -0.000
     In    27      Px                   0.240     0.240    -0.000
     In    27      Py                   0.239     0.239     0.000
     In    27      Pz                   0.240     0.239     0.000
     In    27      S                   -0.267    -0.270     0.003
     In    28      Dzz                  1.000     1.000     0.000
     In    28      Dzy                  0.998     0.998     0.000
     In    28      Dzx                  0.998     0.998    -0.000
     In    28      Dxx-yy               1.000     1.000     0.000
     In    28      Dxy                  0.998     0.998    -0.000
     In    28      S                    0.708     0.707     0.001
     In    28      Px                   0.238     0.239    -0.000
     In    28      Py                   0.240     0.239     0.000
     In    28      Pz                   0.247     0.245     0.002
     In    28      S                   -0.265    -0.265    -0.001
     In    29      Dzz                  0.999     0.999     0.000
     In    29      Dzy                  0.998     0.998    -0.000
     In    29      Dzx                  0.998     0.998     0.000
     In    29      Dxx-yy               1.000     1.000     0.000
     In    29      Dxy                  0.998     0.998     0.000
     In    29      S                    0.710     0.710    -0.001
     In    29      Px                   0.250     0.251    -0.001
     In    29      Py                   0.241     0.241    -0.000
     In    29      Pz                   0.241     0.241    -0.000
     In    29      S                   -0.266    -0.266     0.000
     In    30      Dzz                  1.000     1.000     0.000
     In    30      Dzy                  0.998     0.998     0.000
     In    30      Dzx                  0.998     0.998     0.000
     In    30      Dxx-yy               1.000     1.000     0.000
     In    30      Dxy                  0.998     0.998     0.000
     In    30      S                    0.707     0.707     0.000
     In    30      Px                   0.241     0.241    -0.000
     In    30      Py                   0.242     0.242     0.000
     In    30      Pz                   0.242     0.242     0.000
     In    30      S                   -0.265    -0.266     0.001
     In    31      Dzz                  0.999     0.999     0.000
     In    31      Dzy                  0.998     0.998    -0.000
     In    31      Dzx                  0.998     0.998     0.000
     In    31      Dxx-yy               1.000     1.000     0.000
     In    31      Dxy                  0.998     0.998     0.000
     In    31      S                    0.710     0.710    -0.001
     In    31      Px                   0.250     0.251    -0.001
     In    31      Py                   0.241     0.241    -0.000
     In    31      Pz                   0.241     0.241    -0.000
     In    31      S                   -0.266    -0.266     0.000
     In    32      Dzz                  1.000     1.000     0.000
     In    32      Dzy                  0.998     0.998     0.000
     In    32      Dzx                  0.998     0.998     0.000
     In    32      Dxx-yy               1.000     1.000     0.000
     In    32      Dxy                  0.998     0.998    -0.000
     In    32      S                    0.707     0.707     0.000
     In    32      Px                   0.241     0.241    -0.000
     In    32      Py                   0.242     0.242     0.000
     In    32      Pz                   0.242     0.242     0.000
     In    32      S                   -0.265    -0.266     0.001
  ---------------------------------------------------------------
                           Total:     290.996   290.003     0.993
  ---------------------------------------------------------------

     Atomic Populations (Mulliken)
     -----------------------------
Species          Ion Spin      s       p       d       f      Total   Charge(e)   Spin(hbar/2)
==============================================================================================
  P               1   up:     0.873   1.966   0.000   0.000   2.839    -0.642        0.036
                  1   dn:     0.867   1.935   0.000   0.000   2.803
  P               2   up:     0.897   2.034   0.000   0.000   2.932    -0.454        0.410
                  2   dn:     0.889   1.633   0.000   0.000   2.522
  P               3   up:     0.873   1.966   0.000   0.000   2.839    -0.642        0.036
                  3   dn:     0.867   1.935   0.000   0.000   2.803
  P               4   up:     0.866   1.966   0.000   0.000   2.832    -0.662        0.002
                  4   dn:     0.866   1.964   0.000   0.000   2.830
  P               5   up:     0.873   1.966   0.000   0.000   2.839    -0.642        0.036
                  5   dn:     0.867   1.935   0.000   0.000   2.803
  P               6   up:     0.867   1.970   0.000   0.000   2.838    -0.676       -0.000
                  6   dn:     0.867   1.971   0.000   0.000   2.838
  P               7   up:     0.867   1.970   0.000   0.000   2.837    -0.674       -0.000
                  7   dn:     0.867   1.970   0.000   0.000   2.837
  P               8   up:     0.868   1.968   0.000   0.000   2.836    -0.674       -0.002
                  8   dn:     0.868   1.970   0.000   0.000   2.838
  P               9   up:     0.867   1.970   0.000   0.000   2.837    -0.674       -0.000
                  9   dn:     0.867   1.970   0.000   0.000   2.837
  P              10   up:     0.867   1.970   0.000   0.000   2.838    -0.676       -0.000
                 10   dn:     0.867   1.971   0.000   0.000   2.838
  P              11   up:     0.873   1.966   0.000   0.000   2.839    -0.642        0.036
                 11   dn:     0.867   1.935   0.000   0.000   2.803
  P              12   up:     0.868   1.968   0.000   0.000   2.836    -0.674       -0.002
                 12   dn:     0.868   1.970   0.000   0.000   2.838
  P              13   up:     0.867   1.970   0.000   0.000   2.837    -0.674       -0.000
                 13   dn:     0.867   1.970   0.000   0.000   2.837
  P              14   up:     0.864   1.975   0.000   0.000   2.839    -0.680       -0.002
                 14   dn:     0.864   1.977   0.000   0.000   2.841
  P              15   up:     0.867   1.970   0.000   0.000   2.837    -0.674       -0.000
                 15   dn:     0.867   1.970   0.000   0.000   2.837
  P              16   up:     0.866   1.966   0.000   0.000   2.832    -0.662        0.002
                 16   dn:     0.866   1.964   0.000   0.000   2.830
  P              17   up:     0.868   1.975   0.000   0.000   2.843    -0.675        0.011
                 17   dn:     0.866   1.966   0.000   0.000   2.832
  P              18   up:     0.867   1.971   0.000   0.000   2.838    -0.677       -0.001
                 18   dn:     0.867   1.972   0.000   0.000   2.839
  P              19   up:     0.868   1.975   0.000   0.000   2.843    -0.675        0.011
                 19   dn:     0.866   1.966   0.000   0.000   2.832
  P              20   up:     0.867   1.970   0.000   0.000   2.837    -0.674       -0.001
                 20   dn:     0.867   1.971   0.000   0.000   2.838
  P              21   up:     0.868   1.975   0.000   0.000   2.843    -0.675        0.011
                 21   dn:     0.866   1.966   0.000   0.000   2.832
  P              22   up:     0.864   1.979   0.000   0.000   2.843    -0.679        0.008
                 22   dn:     0.864   1.972   0.000   0.000   2.836
  P              23   up:     0.867   1.971   0.000   0.000   2.838    -0.675        0.000
                 23   dn:     0.867   1.971   0.000   0.000   2.837
  P              24   up:     0.866   1.972   0.000   0.000   2.838    -0.675        0.001
                 24   dn:     0.866   1.971   0.000   0.000   2.837
  P              25   up:     0.867   1.971   0.000   0.000   2.838    -0.675        0.000
                 25   dn:     0.867   1.971   0.000   0.000   2.837
  P              26   up:     0.864   1.979   0.000   0.000   2.843    -0.679        0.008
                 26   dn:     0.864   1.972   0.000   0.000   2.836
  P              27   up:     0.868   1.975   0.000   0.000   2.843    -0.675        0.011
                 27   dn:     0.866   1.966   0.000   0.000   2.832
  P              28   up:     0.866   1.972   0.000   0.000   2.838    -0.675        0.001
                 28   dn:     0.866   1.971   0.000   0.000   2.837
  P              29   up:     0.867   1.971   0.000   0.000   2.838    -0.675        0.000
                 29   dn:     0.867   1.971   0.000   0.000   2.837
  P              30   up:     0.867   1.970   0.000   0.000   2.837    -0.674       -0.000
                 30   dn:     0.867   1.970   0.000   0.000   2.837
  P              31   up:     0.867   1.971   0.000   0.000   2.838    -0.675        0.000
                 31   dn:     0.867   1.971   0.000   0.000   2.837
  P              32   up:     0.867   1.970   0.000   0.000   2.837    -0.674       -0.001
                 32   dn:     0.867   1.971   0.000   0.000   2.838
  P              33   up:     0.897   2.035   0.000   0.000   2.932    -0.454        0.410
                 33   dn:     0.888   1.633   0.000   0.000   2.522
  In              1   up:     0.452   0.718   4.995   0.000   6.165     0.677        0.006
                  1   dn:     0.449   0.716   4.995   0.000   6.159
  In              2   up:     0.421   0.700   4.995   0.000   6.117     0.734       -0.032
                  2   dn:     0.439   0.717   4.994   0.000   6.149
  In              3   up:     0.452   0.718   4.995   0.000   6.165     0.677        0.006
                  3   dn:     0.449   0.716   4.995   0.000   6.159
  In              4   up:     0.421   0.700   4.995   0.000   6.117     0.734       -0.032
                  4   dn:     0.439   0.717   4.994   0.000   6.149
  In              5   up:     0.448   0.734   4.994   0.000   6.176     0.656        0.008
                  5   dn:     0.446   0.728   4.994   0.000   6.168
  In              6   up:     0.450   0.714   4.995   0.000   6.159     0.682       -0.000
                  6   dn:     0.450   0.714   4.995   0.000   6.159
  In              7   up:     0.448   0.734   4.994   0.000   6.176     0.656        0.008
                  7   dn:     0.446   0.728   4.994   0.000   6.168
  In              8   up:     0.450   0.714   4.995   0.000   6.159     0.682       -0.000
                  8   dn:     0.450   0.714   4.995   0.000   6.159
  In              9   up:     0.448   0.734   4.994   0.000   6.176     0.656        0.008
                  9   dn:     0.446   0.728   4.994   0.000   6.168
  In             10   up:     0.450   0.714   4.995   0.000   6.159     0.682       -0.000
                 10   dn:     0.450   0.714   4.995   0.000   6.159
  In             11   up:     0.448   0.734   4.994   0.000   6.176     0.656        0.008
                 11   dn:     0.446   0.728   4.994   0.000   6.168
  In             12   up:     0.450   0.714   4.995   0.000   6.159     0.682       -0.000
                 12   dn:     0.450   0.714   4.995   0.000   6.159
  In             13   up:     0.441   0.724   4.995   0.000   6.160     0.681       -0.000
                 13   dn:     0.441   0.724   4.995   0.000   6.160
  In             14   up:     0.442   0.721   4.995   0.000   6.158     0.687        0.002
                 14   dn:     0.440   0.721   4.995   0.000   6.156
  In             15   up:     0.441   0.724   4.995   0.000   6.160     0.681       -0.000
                 15   dn:     0.441   0.724   4.995   0.000   6.160
  In             16   up:     0.442   0.721   4.995   0.000   6.158     0.687        0.002
                 16   dn:     0.440   0.721   4.995   0.000   6.156
  In             17   up:     0.447   0.737   4.993   0.000   6.177     0.632       -0.014
                 17   dn:     0.455   0.744   4.993   0.000   6.191
  In             18   up:     0.442   0.722   4.995   0.000   6.158     0.685        0.002
                 18   dn:     0.442   0.720   4.995   0.000   6.157
  In             19   up:     0.447   0.737   4.993   0.000   6.177     0.632       -0.014
                 19   dn:     0.454   0.744   4.993   0.000   6.191
  In             20   up:     0.442   0.722   4.995   0.000   6.158     0.685        0.002
                 20   dn:     0.442   0.720   4.995   0.000   6.157
  In             21   up:     0.444   0.719   4.995   0.000   6.158     0.687        0.003
                 21   dn:     0.441   0.719   4.995   0.000   6.155
  In             22   up:     0.443   0.725   4.994   0.000   6.162     0.678        0.001
                 22   dn:     0.443   0.723   4.994   0.000   6.160
  In             23   up:     0.444   0.719   4.995   0.000   6.158     0.687        0.003
                 23   dn:     0.441   0.719   4.995   0.000   6.155
  In             24   up:     0.443   0.725   4.994   0.000   6.162     0.678        0.001
                 24   dn:     0.443   0.723   4.994   0.000   6.160
  In             25   up:     0.444   0.719   4.995   0.000   6.158     0.687        0.003
                 25   dn:     0.441   0.719   4.995   0.000   6.155
  In             26   up:     0.443   0.725   4.994   0.000   6.162     0.678        0.001
                 26   dn:     0.443   0.723   4.994   0.000   6.160
  In             27   up:     0.444   0.719   4.995   0.000   6.158     0.687        0.003
                 27   dn:     0.441   0.719   4.995   0.000   6.155
  In             28   up:     0.443   0.725   4.994   0.000   6.162     0.678        0.001
                 28   dn:     0.443   0.723   4.994   0.000   6.160
  In             29   up:     0.444   0.731   4.994   0.000   6.169     0.661       -0.002
                 29   dn:     0.444   0.733   4.994   0.000   6.170
  In             30   up:     0.442   0.725   4.994   0.000   6.161     0.678        0.001
                 30   dn:     0.441   0.725   4.994   0.000   6.160
  In             31   up:     0.444   0.731   4.994   0.000   6.169     0.661       -0.002
                 31   dn:     0.444   0.733   4.994   0.000   6.170
  In             32   up:     0.442   0.725   4.994   0.000   6.161     0.678        0.001
                 32   dn:     0.441   0.725   4.994   0.000   6.160
==============================================================================================

                 Bond                   Population        Spin       Length (A)
================================================================================
              P 2  -- P 33                   0.35        -0.12          2.14201
              P 2  -- In 17                  0.75        -0.01          2.46933
              P 33 -- In 19                  0.75        -0.01          2.46933
              P 16 -- In 31                  0.69         0.00          2.50514
              P 4  -- In 29                  0.69         0.00          2.50514
              P 14 -- In 31                  0.66         0.00          2.51647
              P 14 -- In 29                  0.66         0.00          2.51647
              P 27 -- In 17                  0.65        -0.00          2.52206
              P 21 -- In 17                  0.65        -0.00          2.52206
              P 19 -- In 19                  0.65        -0.00          2.52207
              P 17 -- In 19                  0.65        -0.00          2.52207
              P 3  -- In 9                   0.63        -0.00          2.53138
              P 1  -- In 5                   0.63        -0.00          2.53138
              P 11 -- In 11                  0.63        -0.00          2.53139
              P 5  -- In 7                   0.63        -0.00          2.53139
              P 26 -- In 11                  0.65        -0.00          2.53273
              P 22 -- In 7                   0.65        -0.00          2.53273
              P 26 -- In 9                   0.65        -0.00          2.53273
              P 22 -- In 5                   0.65        -0.00          2.53273
              P 22 -- In 22                  0.67         0.00          2.53291
              P 26 -- In 26                  0.67         0.00          2.53291
              P 26 -- In 28                  0.67         0.00          2.53291
              P 22 -- In 24                  0.67         0.00          2.53291
              P 12 -- In 2                   0.68         0.00          2.53969
              P 8  -- In 4                   0.68         0.00          2.53969
              P 24 -- In 30                  0.67        -0.00          2.54206
              P 28 -- In 32                  0.67        -0.00          2.54206
              P 21 -- In 22                  0.64        -0.00          2.54334
              P 27 -- In 28                  0.64        -0.00          2.54334
              P 19 -- In 26                  0.64        -0.00          2.54334
              P 17 -- In 24                  0.64        -0.00          2.54334
              P 18 -- In 20                  0.66         0.00          2.54372
              P 18 -- In 18                  0.66         0.00          2.54372
              P 25 -- In 32                  0.66        -0.00          2.54602
              P 23 -- In 30                  0.66        -0.00          2.54602
              P 31 -- In 32                  0.66        -0.00          2.54602
              P 29 -- In 30                  0.66        -0.00          2.54602
              P 32 -- In 28                  0.67         0.00          2.54644
              P 32 -- In 22                  0.67         0.00          2.54644
              P 20 -- In 24                  0.67         0.00          2.54644
              P 20 -- In 26                  0.67         0.00          2.54644
              P 15 -- In 5                   0.66         0.00          2.54746
              P 7  -- In 7                   0.66         0.00          2.54746
              P 9  -- In 11                  0.66         0.00          2.54746
              P 13 -- In 9                   0.66         0.00          2.54746
              P 6  -- In 23                  0.66         0.00          2.54767
              P 10 -- In 27                  0.66         0.00          2.54767
              P 6  -- In 21                  0.66         0.00          2.54767
              P 10 -- In 25                  0.66         0.00          2.54767
              P 15 -- In 15                  0.67         0.00          2.54771
              P 13 -- In 15                  0.67         0.00          2.54771
              P 9  -- In 13                  0.67         0.00          2.54771
              P 7  -- In 13                  0.67         0.00          2.54771
              P 5  -- In 4                   0.63        -0.01          2.54899
              P 11 -- In 2                   0.63        -0.01          2.54899
              P 3  -- In 4                   0.63        -0.01          2.54899
              P 1  -- In 2                   0.63        -0.01          2.54899
              P 28 -- In 18                  0.66         0.00          2.54953
              P 24 -- In 20                  0.66         0.00          2.54953
              P 23 -- In 29                  0.65         0.00          2.55039
              P 25 -- In 29                  0.65         0.00          2.55039
              P 29 -- In 31                  0.65         0.00          2.55039
              P 31 -- In 31                  0.65         0.00          2.55039
              P 11 -- In 1                   0.66        -0.00          2.55125
              P 5  -- In 1                   0.66        -0.00          2.55125
              P 3  -- In 3                   0.66        -0.00          2.55125
              P 1  -- In 3                   0.66        -0.00          2.55125
              P 14 -- In 16                  0.67         0.00          2.55160
              P 14 -- In 14                  0.67         0.00          2.55160
              P 28 -- In 5                   0.65        -0.00          2.55202
              P 24 -- In 9                   0.65        -0.00          2.55202
              P 24 -- In 7                   0.65        -0.00          2.55202
              P 28 -- In 11                  0.65        -0.00          2.55202
              P 7  -- In 14                  0.67         0.00          2.55268
              P 9  -- In 16                  0.67         0.00          2.55268
              P 13 -- In 14                  0.67         0.00          2.55268
              P 15 -- In 16                  0.67         0.00          2.55268
              P 31 -- In 22                  0.66        -0.00          2.55272
              P 29 -- In 28                  0.66        -0.00          2.55272
              P 25 -- In 26                  0.66        -0.00          2.55272
              P 23 -- In 24                  0.66        -0.00          2.55272
              P 30 -- In 15                  0.66         0.00          2.55315
              P 30 -- In 13                  0.66         0.00          2.55315
              P 4  -- In 8                   0.67         0.00          2.55395
              P 4  -- In 10                  0.67         0.00          2.55395
              P 16 -- In 6                   0.67         0.00          2.55395
              P 16 -- In 12                  0.67         0.00          2.55395
              P 8  -- In 25                  0.66         0.00          2.55526
              P 12 -- In 21                  0.66         0.00          2.55527
              P 12 -- In 27                  0.66         0.00          2.55527
              P 8  -- In 23                  0.66         0.00          2.55527
              P 25 -- In 27                  0.66         0.00          2.55527
              P 23 -- In 23                  0.66         0.00          2.55528
              P 31 -- In 21                  0.66         0.00          2.55528
              P 29 -- In 25                  0.66         0.00          2.55528
              P 20 -- In 13                  0.65        -0.00          2.55530
              P 32 -- In 15                  0.65         0.00          2.55530
              P 27 -- In 18                  0.65        -0.00          2.55579
              P 19 -- In 20                  0.65        -0.00          2.55579
              P 21 -- In 20                  0.65        -0.00          2.55579
              P 17 -- In 18                  0.65        -0.00          2.55579
              P 20 -- In 3                   0.66         0.00          2.55605
              P 32 -- In 1                   0.66         0.00          2.55605
              P 30 -- In 30                  0.66         0.00          2.55607
              P 30 -- In 32                  0.66         0.00          2.55607
              P 18 -- In 3                   0.64         0.00          2.55849
              P 18 -- In 1                   0.64         0.00          2.55849
              P 8  -- In 14                  0.64         0.00          2.55924
              P 12 -- In 16                  0.64         0.00          2.55924
              P 6  -- In 8                   0.65        -0.00          2.56033
              P 10 -- In 10                  0.65        -0.00          2.56033
              P 10 -- In 12                  0.65        -0.00          2.56033
              P 6  -- In 6                   0.65        -0.00          2.56033
              P 19 -- In 25                  0.67         0.00          2.56148
              P 17 -- In 21                  0.67         0.00          2.56148
              P 21 -- In 23                  0.67         0.00          2.56148
              P 27 -- In 27                  0.67         0.00          2.56148
              P 15 -- In 6                   0.64        -0.00          2.56161
              P 13 -- In 12                  0.64        -0.00          2.56161
              P 9  -- In 10                  0.64        -0.00          2.56161
              P 7  -- In 8                   0.64        -0.00          2.56161
              P 3  -- In 10                  0.65         0.01          2.56754
              P 1  -- In 8                   0.65         0.01          2.56754
              P 5  -- In 6                   0.65         0.01          2.56754
              P 11 -- In 12                  0.65         0.01          2.56754
              P 4  -- In 19                  0.53         0.00          2.57491
              P 16 -- In 17                  0.53         0.00          2.57492
              P 33 -- In 4                   0.30        -0.00          2.71706
              P 33 -- In 2                   0.30        -0.00          2.71706
              P 2  -- In 4                   0.30        -0.00          2.71709
              P 2  -- In 2                   0.30        -0.00          2.71709
================================================================================

 Hirshfeld supercell size:           2           2           2
Standard grid dimensions: 240 240 240
Fine grid dimensions:     240 240 240


     Hirshfeld Analysis
     ------------------
Species   Ion     Hirshfeld Charge (e)  Spin (hbar/2)
===================================================
  P        1                -0.23        0.03
  P        2                -0.16        0.31
  P        3                -0.23        0.03
  P        4                -0.24        0.00
  P        5                -0.23        0.03
  P        6                -0.24        0.00
  P        7                -0.24        0.00
  P        8                -0.23        0.00
  P        9                -0.24        0.00
  P       10                -0.24        0.00
  P       11                -0.23        0.03
  P       12                -0.23        0.00
  P       13                -0.24        0.00
  P       14                -0.24       -0.00
  P       15                -0.24        0.00
  P       16                -0.24        0.00
  P       17                -0.24        0.01
  P       18                -0.24       -0.00
  P       19                -0.24        0.01
  P       20                -0.24        0.00
  P       21                -0.24        0.01
  P       22                -0.24        0.01
  P       23                -0.24        0.00
  P       24                -0.24        0.00
  P       25                -0.24        0.00
  P       26                -0.24        0.01
  P       27                -0.24        0.01
  P       28                -0.24        0.00
  P       29                -0.24        0.00
  P       30                -0.24        0.00
  P       31                -0.24        0.00
  P       32                -0.24        0.00
  P       33                -0.16        0.31
  In       1                 0.24        0.00
  In       2                 0.26        0.04
  In       3                 0.24        0.00
  In       4                 0.26        0.04
  In       5                 0.23        0.01
  In       6                 0.25        0.00
  In       7                 0.23        0.01
  In       8                 0.25        0.00
  In       9                 0.23        0.01
  In      10                 0.25        0.00
  In      11                 0.23        0.01
  In      12                 0.25        0.00
  In      13                 0.24        0.00
  In      14                 0.24       -0.00
  In      15                 0.24        0.00
  In      16                 0.24       -0.00
  In      17                 0.22        0.02
  In      18                 0.24        0.00
  In      19                 0.22        0.02
  In      20                 0.24        0.00
  In      21                 0.25        0.00
  In      22                 0.24        0.00
  In      23                 0.25        0.00
  In      24                 0.24        0.00
  In      25                 0.25        0.00
  In      26                 0.24        0.00
  In      27                 0.25        0.00
  In      28                 0.24        0.00
  In      29                 0.23       -0.00
  In      30                 0.23        0.00
  In      31                 0.23       -0.00
  In      32                 0.23        0.00
===================================================

 
 A BibTeX formatted list of references used in this run has been written to 
 P_Interstitial_Migration_Dumbbell#_Dumbbell+_Singlepoints_7.bib
 
Initialisation time =     31.12 s
Calculation time    =   7890.70 s
Finalisation time   =    174.61 s
Total time          =   8096.43 s
Peak Memory Use     = 9672688 kB
 
Overall parallel efficiency rating: Poor (35%)
 
Data was distributed by:-
G-vector (3-way); efficiency rating: Poor (37%)
k-point (36-way); efficiency rating: Very good (87%)
