 +-------------------------------------------------+
 |                                                 |
 |      CCC   AA    SSS  TTTTT  EEEEE  PPPP        |
 |     C     A  A  S       T    E      P   P       |
 |     C     AAAA   SS     T    EEE    PPPP        |
 |     C     A  A     S    T    E      P           |
 |      CCC  A  A  SSS     T    EEEEE  P           |
 |                                                 |
 +-------------------------------------------------+
 |                                                 |
 | Welcome to Academic Release CASTEP version 24.1 |
 | Ab Initio Total Energy Program                  |
 |                                                 |
 | Authors:                                        |
 | M. Segall, M. Probert, C. Pickard, P. Hasnip,   |
 | S. Clark, K. Refson, J. R. Yates,               |
 | A. Bartok-Partay, M. Payne                      |
 |                                                 |
 | Contributors:                                   |
 | P. Lindan, P. Haynes, J. White, V. Milman,      |
 | N. Govind, M. Gibson, P. Tulip, V. Cocula,      |
 | B. Montanari, D. Quigley, M. Glover,            |
 | L. Bernasconi, A. Perlov, M. Plummer,           |
 | E. McNellis, J. Meyer, J. Gale, D. Jochym       |
 | J. Aarons, B. Walker, R. Gillen, D. Jones       |
 | T. Green, I. J. Bush, C. J. Armstrong,          |
 | E. J. Higgins, E. L. Brown, M. S. McFly,        |
 | J. Wilkins, B-C. Shih, P. J. P. Byrne,          |
 | R. J. Maurer, J. C. Womack, J. Dziedzic,        |
 | L. LeBlanc, T. K. Stenczel, J. Kermode,         |
 | S. Sturniolo, B. Shi, B. Durham, M. Evans,      |
 | M. J. Smith, A. Tamerus, Z. Hawkhead,           |
 | V. Ravindran, T. Hollins, S. A. Joyce,          |
 | R. T. Strong, A. M. Reilly, S. J. Donaldson     |
 |                                                 |
 | Copyright (c) 2000 - 2023                       |
 |                                                 |
 |     Distributed under license from Cambridge    |
 |     Enterprise for academic use only.           |
 |                                                 |
 | Please cite                                     |
 |                                                 |
 |     "First principles methods using CASTEP"     |
 |                                                 |
 |         Zeitschrift fuer Kristallographie       |
 |           220(5-6) pp. 567-570 (2005)           |
 |                                                 |
 | S. J. Clark, M. D. Segall, C. J. Pickard,       |
 | P. J. Hasnip, M. J. Probert, K. Refson,         |
 | M. C. Payne                                     |
 |                                                 |
 |       in all publications arising from          |
 |              your use of CASTEP                 |
 |                                                 |
 +-------------------------------------------------+
 |                                                 |
 |              http://www.castep.org              |
 |                                                 |
 +-------------------------------------------------+



 Compiled for  GNU 11.2.0 on 04-04-2024 18:39:17
 from code version 6355fd106 Castep241_branch Thu Mar 7 17:56:19 2024 +0000
 Compiler: GNU Fortran 11.2.0; Optimisation: FAST
 Comms   : MPI VERSION : CRAY MPICH version 8.1.23.14 (ANL base 3.4a2)
 MATHLIBS: default (LAPACK version 3.10.1)
 FFT Lib : fftw3 version commercial-fftw-3.3.10-sse2-avx-avx2-avx2_128
 Fundamental constants values: CODATA 2018

 Run started: Sun, 27 Apr 2025 05:21:01 +0100

 Atomic calculation performed for P: 1s2 2s2 2p6 3s2 3p3

 Converged in 47 iterations to an ae energy of -9309.074 eV

   ============================================================                
   | Pseudopotential Report - Date of generation 27-04-2025   |                
   ------------------------------------------------------------                
   | Element: P Ionic charge:  5.00 Level of theory: RSCAN    |                
   | Atomic Solver: Koelling-Harmon                           |                
   |                                                          |                
   |               Reference Electronic Structure             |                
   |         Orbital         Occupation         Energy        |                
   |            3s              2.000           -0.535        |                
   |            3p              3.000           -0.209        |                
   |                                                          |                
   |                 Pseudopotential Definition               |                
   |        Beta     l      e      Rc     scheme   norm       |                
   |          1      0   -0.535   1.807     qc      0         |                
   |          2      0    0.250   1.807     qc      0         |                
   |          3      1   -0.209   1.807     qc      0         |                
   |          4      1    0.250   1.807     qc      0         |                
   |          5      2    0.000   1.807     qc      0         |                
   |          6      2    0.250   1.807     qc      0         |                
   |         loc     3    0.000   1.807     pn      0         |                
   |                                                          |                
   | Augmentation charge Rinner = 1.263                       |                
   | Partial core correction Rc = 1.263                       |                
   ------------------------------------------------------------                
   | "3|1.8|4|4|5|30:31:32"                                   |                
   ------------------------------------------------------------                
   |      Author: Chris J. Pickard, Cambridge University      |                
   ============================================================                
 Warning: otfg_output_psp cannot write out meta-GGA pseudopotentials presently.

 Atomic calculation performed for In:
 1s2 2s2 2p6 3s2 3p6 3d10 4s2 4p6 4d10 5s2 5p1

 Converged in 84 iterations to an ae energy of -160093.328 eV

   ============================================================                
   | Pseudopotential Report - Date of generation 27-04-2025   |                
   ------------------------------------------------------------                
   | Element: In Ionic charge: 13.00 Level of theory: RSCAN   |                
   | Atomic Solver: Koelling-Harmon                           |                
   |                                                          |                
   |               Reference Electronic Structure             |                
   |         Orbital         Occupation         Energy        |                
   |            4d             10.000           -0.711        |                
   |            5s              2.000           -0.313        |                
   |            5p              1.000           -0.095        |                
   |                                                          |                
   |                 Pseudopotential Definition               |                
   |        Beta     l      e      Rc     scheme   norm       |                
   |          1      0   -0.313   2.501     qc      0         |                
   |          2      0    0.250   2.501     qc      0         |                
   |          3      1   -0.095   2.501     qc      0         |                
   |          4      1    0.250   2.501     qc      0         |                
   |          5      2   -0.711   2.207     qc      0         |                
   |          6      2    0.250   2.207     qc      0         |                
   |         loc     3    0.000   2.501     pn      0         |                
   |                                                          |                
   | Augmentation charge Rinner = 1.504                       |                
   | Partial core correction Rc = 1.504                       |                
   ------------------------------------------------------------                
   | "3|2.5|2.5|1.5|7|8|9|50:51:42U2.2U2.2"                   |                
   ------------------------------------------------------------                
   |      Author: Chris J. Pickard, Cambridge University      |                
   ============================================================                
 Warning: otfg_output_psp cannot write out meta-GGA pseudopotentials presently.

 Pseudo atomic calculation performed for P 3s2 3p3

 Converged in 23 iterations to a total energy of -208.0292 eV

 Pseudo atomic calculation performed for In 4d10 5s2 5p1

 Converged in 42 iterations to a total energy of -1747.4501 eV
 Calculation parallelised over 108 processes.
 Data is distributed by G-vector(3-way) and k-point(36-way)
 Each process may use up to 16 threads.

 ************************************ Title ************************************
 

 ***************************** General Parameters ******************************
  
 output verbosity                               : normal  (1)
 write checkpoint data to                       : P_Interstitial_Migration_Dumbbell_Dumbbell+_Singlepoints_1.check
 type of calculation                            : single point energy
 stress calculation                             : off
 density difference calculation                 : off
 electron localisation func (ELF) calculation   : off
 Hirshfeld analysis                             : on
 polarisation (Berry phase) analysis            : off
 molecular orbital projected DOS                : off
 deltaSCF calculation                           : off
 unlimited duration calculation
 timing information                             : on
 memory usage estimate                          : on
 write extra output files                       : on
 write final potential to formatted file        : off
 write final density to formatted file          : off
 write BibTeX reference list                    : on
 write OTFG pseudopotential files               : on
 write electrostatic potential file             : on
 write bands file                               : on
 checkpoint writing                             : off
  
 output         length unit                     : A
 output           mass unit                     : amu
 output           time unit                     : ps
 output         charge unit                     : e
 output           spin unit                     : hbar/2
 output         energy unit                     : eV
 output          force unit                     : eV/A
 output       velocity unit                     : A/ps
 output       pressure unit                     : GPa
 output     inv_length unit                     : 1/A
 output      frequency unit                     : cm-1
 output force constant unit                     : eV/A**2
 output         volume unit                     : A**3
 output   IR intensity unit                     : (D/A)**2/amu
 output         dipole unit                     : D
 output         efield unit                     : eV/A/e
 output        entropy unit                     : J/mol/K
 output    efield chi2 unit                     : pm/V
  
 wavefunctions paging                           : none
 random number generator seed                   :   52101626
 data distribution                              : optimal for this architecture
 optimization strategy                          : balance speed and memory

 *********************** Exchange-Correlation Parameters ***********************
  
 using functional                               : RSCAN
 relativistic treatment                         : Koelling-Harmon
 DFT+D: Semi-empirical dispersion correction    : off

 ************************* Pseudopotential Parameters **************************
  
 pseudopotential representation                 : reciprocal space
 <beta|phi> representation                      : reciprocal space
 spin-orbit coupling                            : off

 **************************** Basis Set Parameters *****************************
  
 plane wave basis set cut-off                   :   900.0000   eV
 size of standard grid                          :     2.0000
 size of   fine   gmax                          :    30.7390   1/A
 finite basis set correction                    : none

 **************************** Electronic Parameters ****************************
  
 number of  electrons                           :  581.0    
 net charge of system                           :  0.000    
 net spin   of system                           :  1.000    
 number of  up  spins                           :  291.0    
 number of down spins                           :  290.0    
 treating system as spin-polarized
 number of bands                                :        349

 ********************* Electronic Minimization Parameters **********************
  
 Method: Treating system as metallic with density mixing treatment of electrons,
         and number of  SD  steps               :          1
         and number of  CG  steps               :          4
  
 total energy / atom convergence tol.           : 0.1000E-07   eV
 eigen-energy convergence tolerance             : 0.2234E-08   eV
 max force / atom convergence tol.              : ignored
 convergence tolerance window                   :          3   cycles
 max. number of SCF cycles                      :        100
 number of fixed-spin iterations                :         10
 smearing scheme                                : Gaussian
 smearing width                                 : 0.2000       eV
 Fermi energy convergence tolerance             : 0.2721E-13   eV
 periodic dipole correction                     : NONE

 ************************** Density Mixing Parameters **************************
  
 density-mixing scheme                          : Pulay
 max. length of mixing history                  :         20
 charge density mixing amplitude                : 0.5000    
   spin density mixing amplitude                :  2.000    
 cut-off energy for mixing                      :  900.0       eV

 *********************** Population Analysis Parameters ************************
  
 Population analysis with cutoff                :  3.000       A
 Population analysis output                     : summary and pdos components

 *******************************************************************************
  

                           -------------------------------
                                      Unit Cell
                           -------------------------------
        Real Lattice(A)                      Reciprocal Lattice(1/A)
    11.8016820    -0.0000080    -0.0000080        0.532397442   0.000000361   0.000000361
    -0.0000080    11.8016820    -0.0000080        0.000000361   0.532397442   0.000000361
    -0.0000080    -0.0000080    11.8016820        0.000000361   0.000000361   0.532397442

                       Lattice parameters(A)       Cell Angles
                    a =     11.801682          alpha =   90.000078
                    b =     11.801682          beta  =   90.000078
                    c =     11.801682          gamma =   90.000078

                       Current cell volume =          1643.734705       A**3
                                   density =             2.857097   AMU/A**3
                                           =             4.744322     g/cm^3

                           -------------------------------
                                     Cell Contents
                           -------------------------------
                         Total number of ions in cell =   65
                      Total number of species in cell =    2
                        Max number of any one species =   33

            xxxxxxxxxxxxxxxxxxxxxxxxxxxxxxxxxxxxxxxxxxxxxxxxxxxxxxxxxxxx
            x  Element    Atom        Fractional coordinates of atoms  x
            x            Number           u          v          w      x
            x----------------------------------------------------------x
            x  P            1         0.114612   0.123580   0.383794   x 
            x  P            2         0.337217   0.175852   0.199390   x 
            x  P            3         0.123505   0.373339   0.121116   x 
            x  P            4         0.378466   0.380357   0.380507   x 
            x  P            5         0.116062   0.122092   0.861953   x 
            x  P            6         0.374150   0.123372   0.622053   x 
            x  P            7         0.124008   0.374210   0.622020   x 
            x  P            8         0.374749   0.373144   0.872197   x 
            x  P            9         0.124342   0.620902   0.370685   x 
            x  P           10         0.373875   0.623529   0.122495   x 
            x  P           11         0.121277   0.870995   0.124756   x 
            x  P           12         0.374603   0.870584   0.375715   x 
            x  P           13         0.124281   0.624993   0.875243   x 
            x  P           14         0.370141   0.622243   0.624152   x 
            x  P           15         0.122306   0.871184   0.622730   x 
            x  P           16         0.376692   0.867029   0.863967   x 
            x  P           17         0.631287   0.120524   0.377064   x 
            x  P           18         0.877280   0.123319   0.122444   x 
            x  P           19         0.628645   0.376153   0.120827   x 
            x  P           20         0.874982   0.373674   0.372619   x 
            x  P           21         0.628855   0.126966   0.869451   x 
            x  P           22         0.869106   0.123079   0.624198   x 
            x  P           23         0.624742   0.375035   0.623035   x 
            x  P           24         0.875165   0.375068   0.872446   x 
            x  P           25         0.623986   0.624523   0.373072   x 
            x  P           26         0.872316   0.622719   0.122543   x 
            x  P           27         0.626304   0.872575   0.123807   x 
            x  P           28         0.874072   0.871366   0.372458   x 
            x  P           29         0.623939   0.623015   0.872516   x 
            x  P           30         0.873880   0.623355   0.622708   x 
            x  P           31         0.624108   0.872709   0.622470   x 
            x  P           32         0.874243   0.872607   0.873827   x 
            x  P           33         0.333335   0.066442   0.056486   x 
            x  In           1         0.001445  -0.001888  -0.003315   x 
            x  In           2         0.234604  -0.010240   0.265591   x 
            x  In           3         0.001247   0.248216   0.248613   x 
            x  In           4         0.238057   0.250828  -0.015733   x 
            x  In           5        -0.008020  -0.004332   0.503861   x 
            x  In           6         0.249409  -0.003942   0.745777   x 
            x  In           7        -0.005681   0.250649   0.742148   x 
            x  In           8         0.250681   0.249912   0.496747   x 
            x  In           9        -0.001086   0.499801  -0.000900   x 
            x  In          10         0.252019   0.495113   0.247843   x 
            x  In          11        -0.002596   0.744910   0.247253   x 
            x  In          12         0.251527   0.751912  -0.002477   x 
            x  In          13        -0.000581   0.499001   0.497632   x 
            x  In          14         0.246596   0.498015   0.750084   x 
            x  In          15        -0.001309   0.747092   0.748892   x 
            x  In          16         0.246644   0.745780   0.497899   x 
            x  In          17         0.513345  -0.012143  -0.017409   x 
            x  In          18         0.752906  -0.001663   0.246564   x 
            x  In          19         0.517974   0.260604   0.262743   x 
            x  In          20         0.753443   0.248494  -0.001944   x 
            x  In          21         0.499057  -0.001517   0.497959   x 
            x  In          22         0.749296  -0.004004   0.748417   x 
            x  In          23         0.499052   0.249038   0.745859   x 
            x  In          24         0.750920   0.250666   0.499268   x 
            x  In          25         0.498423   0.499075  -0.002157   x 
            x  In          26         0.750398   0.499773   0.249627   x 
            x  In          27         0.498344   0.748011   0.247118   x 
            x  In          28         0.749344   0.747463  -0.002495   x 
            x  In          29         0.499956   0.504221   0.502835   x 
            x  In          30         0.749373   0.498706   0.748511   x 
            x  In          31         0.499771   0.743334   0.742751   x 
            x  In          32         0.748927   0.748612   0.497710   x 
            xxxxxxxxxxxxxxxxxxxxxxxxxxxxxxxxxxxxxxxxxxxxxxxxxxxxxxxxxxxx


                         No user defined ionic velocities

                           -------------------------------
                                   Details of Species
                           -------------------------------

                               Mass of species in AMU
                                    P   30.9737600
                                    In  114.8180000

                          Electric Quadrupole Moment (Barn)
                                    P    1.0000000 No Isotope Defined
                                    In    0.7700000 Isotope115

                          Files used for pseudopotentials:
                                    P 3|1.8|4|4|5|30:31:32
                                    In 3|2.5|2.5|1.5|7|8|9|50:51:42U2.2U2.2

                           -------------------------------
                              k-Points For BZ Sampling
                           -------------------------------
                       MP grid size for SCF calculation is  4  4  4
                            with an offset of   0.125  0.125  0.125
                       Number of kpoints used =            36

                           -------------------------------
                               Symmetry and Constraints
                           -------------------------------

                      Maximum deviation from symmetry =  0.00000         ANG

                      Number of symmetry operations   =           1
                      Number of ionic constraints     =           3
                      Point group of crystal =     1: C1, 1, 1
                      Space group of crystal =     1: P1, P 1

             Set iprint > 1 for details on symmetry rotations/translations

                         Centre of mass is constrained
             Set iprint > 1 for details of linear ionic constraints

                         Number of cell constraints= 0
                         Cell constraints are:  1 2 3 4 5 6

                         External pressure/stress (GPa)
                          0.00000   0.00000   0.00000
                                    0.00000   0.00000
                                              0.00000
 
+---------------- MEMORY AND SCRATCH DISK ESTIMATES PER PROCESS --------------+
|                                                     Memory          Disk    |
| Baseline code, static data and system overhead      368.0 MB         0.0 MB |
| BLAS internal memory storage                          0.0 MB         0.0 MB |
| Model and support data                             4327.0 MB         0.0 MB |
| Electronic energy minimisation requirements        1337.1 MB         0.0 MB |
| Force calculation requirements                      127.4 MB         0.0 MB |
|                                               ----------------------------- |
| Approx. total storage required per process         6032.2 MB         0.0 MB |
|                                                                             |
| Requirements will fluctuate during execution and may exceed these estimates |
+-----------------------------------------------------------------------------+
Calculating approximate eigenstates for fixed initial Hamiltonian
Cut-off for approx. calculation is   89.988 eV
Improving approx. states at cut-off of  450.000 eV
Resetting cut-off to  900.000 eV
Calculating total energy with cut-off of  900.000 eV.
------------------------------------------------------------------------ <-- SCF
SCF loop      Energy           Fermi           Energy gain       Timer   <-- SCF
                               energy          per atom          (sec)   <-- SCF
------------------------------------------------------------------------ <-- SCF
Initial  -6.32547584E+004  0.00000000E+000                       435.36  <-- SCF
      1  -6.30179474E+004  2.88618832E+000  -3.64324489E+000     882.63  <-- SCF
      2  -6.30182279E+004  2.88585849E+000   4.31393705E-003    1198.79  <-- SCF
      3  -6.30841495E+004  3.18377170E+000   1.01417907E+000    1553.80  <-- SCF
      4  -6.30957503E+004  3.26808540E+000   1.78473819E-001    2056.21  <-- SCF
      5  -6.31016802E+004  3.43783294E+000   9.12296432E-002    2411.19  <-- SCF
      6  -6.30902768E+004  3.62940600E+000  -1.75436569E-001    2763.21  <-- SCF
      7  -6.30889423E+004  3.67841855E+000  -2.05316918E-002    3113.13  <-- SCF
      8  -6.30890840E+004  3.71858432E+000   2.18085821E-003    3471.59  <-- SCF
      9  -6.30899153E+004  3.74484402E+000   1.27883672E-002    3828.00  <-- SCF
     10  -6.30901884E+004  3.71078789E+000   4.20210678E-003    4182.84  <-- SCF
     11  -6.30901939E+004  3.70265739E+000   8.40158339E-005    4556.02  <-- SCF
     12  -6.30901962E+004  3.69628868E+000   3.50534689E-005    4911.73  <-- SCF
     13  -6.30901972E+004  3.69579073E+000   1.65096316E-005    5276.24  <-- SCF
     14  -6.30901975E+004  3.69493158E+000   3.59563021E-006    5637.11  <-- SCF
     15  -6.30901975E+004  3.69420321E+000   9.54528058E-007    5992.19  <-- SCF
     16  -6.30901975E+004  3.69418664E+000   2.65891658E-007    6294.96  <-- SCF
     17  -6.30901975E+004  3.69404830E+000   7.79210036E-008    6583.46  <-- SCF
     18  -6.30901975E+004  3.69410579E+000   2.44375406E-008    6837.46  <-- SCF
     19  -6.30901975E+004  3.69416453E+000   8.85429173E-009    7085.58  <-- SCF
     20  -6.30901975E+004  3.69417411E+000   2.65685864E-009    7330.76  <-- SCF
     21  -6.30901975E+004  3.69417819E+000   7.06287300E-010    7583.93  <-- SCF
------------------------------------------------------------------------ <-- SCF
 
Integrated Spin Density     =    0.991614     hbar/2
Integrated |Spin Density|   =     1.17956     hbar/2
 
Final energy, E             =  -63090.18980217     eV
Final free energy (E-TS)    =  -63090.19754740     eV
(energies not corrected for finite basis set)
 
NB est. 0K energy (E-0.5TS)      =  -63090.19367479     eV
 

 ************************** Forces **************************
 *                                                          *
 *               Cartesian components (eV/A)                *
 * -------------------------------------------------------- *
 *                         x            y            z      *
 *                                                          *
 * P               1     -0.02128     -0.05009      0.02228 *
 * P               2     -0.00997      0.11174     -0.08322 *
 * P               3      0.03305      0.01127      0.03683 *
 * P               4     -0.00934      0.01030     -0.02898 *
 * P               5     -0.00909      0.02428      0.00848 *
 * P               6     -0.02276     -0.00604      0.00618 *
 * P               7     -0.00124     -0.01818      0.01432 *
 * P               8      0.02383     -0.00242      0.03221 *
 * P               9     -0.00236      0.02051     -0.01035 *
 * P              10     -0.02868     -0.00322     -0.00515 *
 * P              11      0.02409     -0.02680      0.00069 *
 * P              12      0.02746      0.02407     -0.03907 *
 * P              13     -0.00347     -0.02399      0.01473 *
 * P              14      0.03612      0.01024     -0.01031 *
 * P              15      0.00915      0.01761     -0.01501 *
 * P              16     -0.00061     -0.02043      0.02459 *
 * P              17     -0.00955      0.02666     -0.00675 *
 * P              18     -0.00189     -0.00462     -0.00508 *
 * P              19     -0.01645     -0.01901      0.02828 *
 * P              20      0.01750      0.01412      0.00249 *
 * P              21      0.02835     -0.02864      0.01228 *
 * P              22      0.02584     -0.00372     -0.00461 *
 * P              23     -0.01458      0.01632      0.00820 *
 * P              24      0.02179      0.00346      0.00377 *
 * P              25     -0.01781      0.00986      0.01314 *
 * P              26      0.02350     -0.00946      0.00317 *
 * P              27      0.02036     -0.01805     -0.01805 *
 * P              28      0.01636     -0.00746      0.00025 *
 * P              29     -0.01529     -0.01738     -0.01632 *
 * P              30     -0.00786     -0.00488     -0.00242 *
 * P              31     -0.01647     -0.02994     -0.01182 *
 * P              32      0.01697     -0.02124     -0.01338 *
 * P              33      0.04810     -0.05790      0.05349 *
 * In              1     -0.04374      0.02248      0.01288 *
 * In              2     -0.06952      0.04294     -0.05912 *
 * In              3     -0.04064     -0.02762      0.00011 *
 * In              4     -0.09267      0.02643     -0.02435 *
 * In              5      0.00843      0.06228     -0.02332 *
 * In              6      0.00837      0.03907     -0.00414 *
 * In              7     -0.01317     -0.04907      0.01442 *
 * In              8     -0.01056     -0.01138      0.03634 *
 * In              9     -0.03086      0.00609     -0.03004 *
 * In             10      0.01035      0.01107     -0.00074 *
 * In             11     -0.01518      0.01302      0.00977 *
 * In             12      0.00033     -0.03760      0.00574 *
 * In             13     -0.00667      0.01629      0.00694 *
 * In             14     -0.00774      0.03192     -0.02869 *
 * In             15     -0.00537     -0.01664     -0.00408 *
 * In             16     -0.01599     -0.02742      0.02765 *
 * In             17      0.02040      0.05271     -0.00677 *
 * In             18     -0.00312     -0.01646      0.04110 *
 * In             19      0.00200     -0.04334      0.00172 *
 * In             20     -0.01810      0.02369     -0.02963 *
 * In             21      0.04978      0.04679      0.02858 *
 * In             22     -0.00734      0.07822     -0.01111 *
 * In             23      0.03022     -0.05751      0.00859 *
 * In             24     -0.00604     -0.07205      0.00695 *
 * In             25      0.03904     -0.02022      0.03766 *
 * In             26     -0.02234     -0.00120     -0.04387 *
 * In             27      0.03980     -0.00153     -0.02697 *
 * In             28     -0.01168     -0.00940      0.03003 *
 * In             29     -0.00227     -0.02260     -0.00982 *
 * In             30      0.02649      0.00157      0.00929 *
 * In             31     -0.00411      0.01558      0.01793 *
 * In             32      0.02813     -0.00309     -0.00790 *
 *                                                          *
 ************************************************************

 Pseudo atomic calculation performed for P 3s2 3p3

 Converged in 23 iterations to a total energy of -208.0292 eV

 Pseudo atomic calculation performed for In 4d10 5s2 5p1

 Converged in 42 iterations to a total energy of -1747.4501 eV
Charge spilling parameter for spin component 1 = 0.18%
Charge spilling parameter for spin component 2 = 0.18%

                   Orbital Populations                  
  ---------------------------------------------------------------
     Ion    Atom   Orbital              Up        Down      Spin
  ---------------------------------------------------------------
      P     1      S                    0.871     0.867     0.004
      P     1      Px                   0.664     0.643     0.021
      P     1      Py                   0.650     0.642     0.008
      P     1      Pz                   0.657     0.648     0.008
      P     2      S                    0.897     0.886     0.011
      P     2      Px                   0.725     0.700     0.025
      P     2      Py                   0.700     0.440     0.260
      P     2      Pz                   0.618     0.478     0.140
      P     3      S                    0.872     0.868     0.004
      P     3      Px                   0.654     0.649     0.005
      P     3      Py                   0.652     0.649     0.003
      P     3      Pz                   0.649     0.648     0.001
      P     4      S                    0.867     0.866     0.000
      P     4      Px                   0.647     0.647    -0.000
      P     4      Py                   0.659     0.659    -0.000
      P     4      Pz                   0.660     0.655     0.005
      P     5      S                    0.871     0.866     0.005
      P     5      Px                   0.666     0.643     0.023
      P     5      Py                   0.654     0.645     0.009
      P     5      Pz                   0.658     0.647     0.012
      P     6      S                    0.867     0.867    -0.000
      P     6      Px                   0.658     0.658    -0.000
      P     6      Py                   0.656     0.657    -0.000
      P     6      Pz                   0.656     0.656    -0.000
      P     7      S                    0.867     0.867    -0.000
      P     7      Px                   0.655     0.655    -0.000
      P     7      Py                   0.658     0.659    -0.000
      P     7      Pz                   0.656     0.656    -0.000
      P     8      S                    0.868     0.867     0.001
      P     8      Px                   0.654     0.653     0.001
      P     8      Py                   0.659     0.655     0.005
      P     8      Pz                   0.660     0.658     0.001
      P     9      S                    0.867     0.867    -0.000
      P     9      Px                   0.656     0.656     0.000
      P     9      Py                   0.657     0.657    -0.000
      P     9      Pz                   0.657     0.657     0.000
      P    10      S                    0.867     0.867    -0.000
      P    10      Px                   0.659     0.659    -0.000
      P    10      Py                   0.655     0.655    -0.000
      P    10      Pz                   0.658     0.658    -0.000
      P    11      S                    0.872     0.868     0.004
      P    11      Px                   0.655     0.648     0.007
      P    11      Py                   0.653     0.649     0.004
      P    11      Pz                   0.647     0.645     0.002
      P    12      S                    0.868     0.867     0.001
      P    12      Px                   0.652     0.651     0.001
      P    12      Py                   0.661     0.655     0.006
      P    12      Pz                   0.661     0.660     0.001
      P    13      S                    0.867     0.867    -0.000
      P    13      Px                   0.657     0.657     0.000
      P    13      Py                   0.655     0.655    -0.000
      P    13      Pz                   0.658     0.657     0.000
      P    14      S                    0.864     0.864     0.000
      P    14      Px                   0.653     0.653     0.000
      P    14      Py                   0.663     0.662     0.001
      P    14      Pz                   0.662     0.661     0.001
      P    15      S                    0.867     0.867    -0.000
      P    15      Px                   0.655     0.655    -0.000
      P    15      Py                   0.658     0.658    -0.000
      P    15      Pz                   0.657     0.658    -0.000
      P    16      S                    0.866     0.866     0.000
      P    16      Px                   0.648     0.648    -0.000
      P    16      Py                   0.660     0.660    -0.000
      P    16      Pz                   0.659     0.655     0.004
      P    17      S                    0.867     0.866     0.002
      P    17      Px                   0.665     0.659     0.006
      P    17      Py                   0.650     0.647     0.003
      P    17      Pz                   0.662     0.659     0.003
      P    18      S                    0.867     0.867    -0.000
      P    18      Px                   0.657     0.657    -0.000
      P    18      Py                   0.657     0.657    -0.000
      P    18      Pz                   0.658     0.658    -0.000
      P    19      S                    0.868     0.867     0.001
      P    19      Px                   0.662     0.659     0.004
      P    19      Py                   0.660     0.659     0.001
      P    19      Pz                   0.650     0.648     0.001
      P    20      S                    0.867     0.867    -0.000
      P    20      Px                   0.656     0.656    -0.000
      P    20      Py                   0.658     0.657     0.000
      P    20      Pz                   0.657     0.657    -0.000
      P    21      S                    0.867     0.866     0.001
      P    21      Px                   0.663     0.659     0.004
      P    21      Py                   0.650     0.648     0.002
      P    21      Pz                   0.662     0.660     0.002
      P    22      S                    0.864     0.863     0.001
      P    22      Px                   0.664     0.661     0.003
      P    22      Py                   0.652     0.651     0.001
      P    22      Pz                   0.664     0.661     0.003
      P    23      S                    0.866     0.866     0.000
      P    23      Px                   0.657     0.657     0.000
      P    23      Py                   0.656     0.656     0.000
      P    23      Pz                   0.658     0.658     0.000
      P    24      S                    0.866     0.866    -0.000
      P    24      Px                   0.659     0.659     0.000
      P    24      Py                   0.658     0.657     0.000
      P    24      Pz                   0.655     0.655     0.000
      P    25      S                    0.867     0.867     0.000
      P    25      Px                   0.657     0.657     0.000
      P    25      Py                   0.658     0.658     0.000
      P    25      Pz                   0.655     0.655    -0.000
      P    26      S                    0.865     0.865     0.000
      P    26      Px                   0.659     0.658     0.001
      P    26      Py                   0.660     0.659     0.001
      P    26      Pz                   0.656     0.656     0.001
      P    27      S                    0.868     0.867     0.001
      P    27      Px                   0.661     0.658     0.004
      P    27      Py                   0.660     0.658     0.001
      P    27      Pz                   0.651     0.650     0.001
      P    28      S                    0.866     0.866    -0.000
      P    28      Px                   0.659     0.660    -0.000
      P    28      Py                   0.657     0.657     0.000
      P    28      Pz                   0.655     0.654     0.000
      P    29      S                    0.867     0.867    -0.000
      P    29      Px                   0.658     0.657     0.000
      P    29      Py                   0.658     0.658    -0.000
      P    29      Pz                   0.655     0.655    -0.000
      P    30      S                    0.867     0.867    -0.000
      P    30      Px                   0.657     0.657    -0.000
      P    30      Py                   0.657     0.657     0.000
      P    30      Pz                   0.656     0.656     0.000
      P    31      S                    0.867     0.867     0.000
      P    31      Px                   0.658     0.657     0.000
      P    31      Py                   0.656     0.656     0.000
      P    31      Pz                   0.657     0.657     0.000
      P    32      S                    0.867     0.867    -0.000
      P    32      Px                   0.655     0.655    -0.000
      P    32      Py                   0.658     0.658    -0.000
      P    32      Pz                   0.657     0.657    -0.000
      P    33      S                    0.893     0.884     0.009
      P    33      Px                   0.718     0.705     0.013
      P    33      Py                   0.691     0.467     0.225
      P    33      Pz                   0.605     0.492     0.113
     In     1      Dzz                  1.000     1.000     0.000
     In     1      Dzy                  0.998     0.998     0.000
     In     1      Dzx                  0.999     0.999     0.000
     In     1      Dxx-yy               1.000     1.000    -0.000
     In     1      Dxy                  0.999     0.999     0.000
     In     1      S                    0.705     0.707    -0.001
     In     1      Px                   0.233     0.233    -0.000
     In     1      Py                   0.241     0.240     0.001
     In     1      Pz                   0.243     0.242     0.001
     In     1      S                   -0.254    -0.258     0.004
     In     2      Dzz                  0.999     0.999     0.000
     In     2      Dzy                  0.999     0.999     0.000
     In     2      Dzx                  0.999     0.999     0.000
     In     2      Dxx-yy               1.000     0.999     0.000
     In     2      Dxy                  0.999     0.998     0.001
     In     2      S                    0.690     0.698    -0.008
     In     2      Px                   0.239     0.240    -0.001
     In     2      Py                   0.240     0.237     0.004
     In     2      Pz                   0.223     0.234    -0.011
     In     2      S                   -0.263    -0.260    -0.003
     In     3      Dzz                  1.000     1.000     0.000
     In     3      Dzy                  0.998     0.998     0.000
     In     3      Dzx                  0.998     0.998     0.000
     In     3      Dxx-yy               1.000     1.000    -0.000
     In     3      Dxy                  0.999     0.999     0.000
     In     3      S                    0.706     0.707    -0.001
     In     3      Px                   0.233     0.233    -0.000
     In     3      Py                   0.241     0.240     0.001
     In     3      Pz                   0.243     0.242     0.001
     In     3      S                   -0.255    -0.259     0.004
     In     4      Dzz                  1.000     0.999     0.000
     In     4      Dzy                  0.999     0.999     0.000
     In     4      Dzx                  0.999     0.999     0.000
     In     4      Dxx-yy               0.999     0.999     0.000
     In     4      Dxy                  0.999     0.998     0.001
     In     4      S                    0.692     0.698    -0.006
     In     4      Px                   0.239     0.238     0.000
     In     4      Py                   0.246     0.239     0.008
     In     4      Pz                   0.222     0.236    -0.014
     In     4      S                   -0.264    -0.261    -0.003
     In     5      Dzz                  0.999     0.999    -0.000
     In     5      Dzy                  0.998     0.998     0.000
     In     5      Dzx                  0.998     0.998     0.000
     In     5      Dxx-yy               1.000     0.999     0.000
     In     5      Dxy                  0.998     0.998     0.000
     In     5      S                    0.714     0.715    -0.001
     In     5      Px                   0.240     0.241    -0.001
     In     5      Py                   0.252     0.250     0.002
     In     5      Pz                   0.241     0.240     0.000
     In     5      S                   -0.270    -0.270     0.000
     In     6      Dzz                  1.000     1.000     0.000
     In     6      Dzy                  0.999     0.999     0.000
     In     6      Dzx                  0.999     0.999     0.000
     In     6      Dxx-yy               1.000     1.000     0.000
     In     6      Dxy                  0.998     0.998     0.000
     In     6      S                    0.705     0.706    -0.001
     In     6      Px                   0.242     0.242    -0.001
     In     6      Py                   0.241     0.241     0.001
     In     6      Pz                   0.232     0.232    -0.000
     In     6      S                   -0.254    -0.258     0.004
     In     7      Dzz                  0.999     0.999     0.000
     In     7      Dzy                  0.998     0.998     0.000
     In     7      Dzx                  0.998     0.998     0.000
     In     7      Dxx-yy               1.000     0.999     0.000
     In     7      Dxy                  0.998     0.998     0.000
     In     7      S                    0.715     0.715    -0.000
     In     7      Px                   0.241     0.241    -0.001
     In     7      Py                   0.252     0.249     0.004
     In     7      Pz                   0.240     0.240     0.001
     In     7      S                   -0.270    -0.270    -0.000
     In     8      Dzz                  1.000     1.000     0.000
     In     8      Dzy                  0.999     0.999     0.000
     In     8      Dzx                  0.999     0.999     0.000
     In     8      Dxx-yy               1.000     1.000     0.000
     In     8      Dxy                  0.998     0.998     0.000
     In     8      S                    0.705     0.705    -0.000
     In     8      Px                   0.241     0.242    -0.001
     In     8      Py                   0.241     0.240     0.001
     In     8      Pz                   0.230     0.231    -0.000
     In     8      S                   -0.252    -0.258     0.006
     In     9      Dzz                  1.000     1.000     0.000
     In     9      Dzy                  0.998     0.998     0.000
     In     9      Dzx                  0.998     0.998    -0.000
     In     9      Dxx-yy               1.000     1.000    -0.000
     In     9      Dxy                  0.998     0.998    -0.000
     In     9      S                    0.716     0.714     0.003
     In     9      Px                   0.242     0.241     0.001
     In     9      Py                   0.243     0.241     0.002
     In     9      Pz                   0.247     0.243     0.004
     In     9      S                   -0.266    -0.267     0.001
     In    10      Dzz                  1.000     1.000    -0.000
     In    10      Dzy                  0.999     0.999     0.000
     In    10      Dzx                  0.999     0.998     0.000
     In    10      Dxx-yy               1.000     1.000    -0.000
     In    10      Dxy                  0.999     0.999     0.000
     In    10      S                    0.706     0.706    -0.000
     In    10      Px                   0.239     0.240    -0.000
     In    10      Py                   0.234     0.234    -0.001
     In    10      Pz                   0.241     0.240     0.001
     In    10      S                   -0.258    -0.254    -0.004
     In    11      Dzz                  1.000     1.000    -0.000
     In    11      Dzy                  0.998     0.998     0.000
     In    11      Dzx                  0.998     0.998    -0.000
     In    11      Dxx-yy               1.000     1.000    -0.000
     In    11      Dxy                  0.998     0.998    -0.000
     In    11      S                    0.717     0.714     0.002
     In    11      Px                   0.242     0.241     0.001
     In    11      Py                   0.243     0.241     0.002
     In    11      Pz                   0.249     0.246     0.004
     In    11      S                   -0.266    -0.267     0.001
     In    12      Dzz                  1.000     1.000    -0.000
     In    12      Dzy                  0.999     0.999     0.000
     In    12      Dzx                  0.998     0.998     0.000
     In    12      Dxx-yy               1.000     1.000    -0.000
     In    12      Dxy                  0.999     0.999     0.000
     In    12      S                    0.705     0.706    -0.001
     In    12      Px                   0.239     0.239    -0.000
     In    12      Py                   0.234     0.234    -0.000
     In    12      Pz                   0.241     0.241     0.000
     In    12      S                   -0.258    -0.254    -0.004
     In    13      Dzz                  1.000     1.000    -0.000
     In    13      Dzy                  0.998     0.998     0.000
     In    13      Dzx                  0.998     0.998     0.000
     In    13      Dxx-yy               1.000     1.000     0.000
     In    13      Dxy                  0.998     0.998     0.000
     In    13      S                    0.706     0.706    -0.000
     In    13      Px                   0.242     0.242    -0.000
     In    13      Py                   0.240     0.240    -0.000
     In    13      Pz                   0.242     0.242     0.000
     In    13      S                   -0.265    -0.264    -0.000
     In    14      Dzz                  1.000     1.000    -0.000
     In    14      Dzy                  0.998     0.998     0.000
     In    14      Dzx                  0.998     0.998     0.000
     In    14      Dxx-yy               1.000     1.000     0.000
     In    14      Dxy                  0.998     0.998    -0.000
     In    14      S                    0.708     0.707     0.001
     In    14      Px                   0.242     0.241     0.001
     In    14      Py                   0.240     0.240    -0.000
     In    14      Pz                   0.241     0.240     0.000
     In    14      S                   -0.266    -0.266     0.000
     In    15      Dzz                  1.000     1.000    -0.000
     In    15      Dzy                  0.998     0.998     0.000
     In    15      Dzx                  0.998     0.998     0.000
     In    15      Dxx-yy               1.000     1.000    -0.000
     In    15      Dxy                  0.999     0.998     0.000
     In    15      S                    0.706     0.706    -0.000
     In    15      Px                   0.242     0.242     0.000
     In    15      Py                   0.240     0.240    -0.000
     In    15      Pz                   0.242     0.242    -0.000
     In    15      S                   -0.265    -0.265    -0.000
     In    16      Dzz                  1.000     1.000     0.000
     In    16      Dzy                  0.998     0.998     0.000
     In    16      Dzx                  0.998     0.998     0.000
     In    16      Dxx-yy               1.000     1.000     0.000
     In    16      Dxy                  0.998     0.998    -0.000
     In    16      S                    0.708     0.707     0.001
     In    16      Px                   0.243     0.242     0.001
     In    16      Py                   0.240     0.240    -0.000
     In    16      Pz                   0.241     0.240     0.001
     In    16      S                   -0.266    -0.267     0.001
     In    17      Dzz                  0.999     0.999     0.000
     In    17      Dzy                  0.998     0.998     0.000
     In    17      Dzx                  0.998     0.998     0.000
     In    17      Dxx-yy               0.999     0.999     0.000
     In    17      Dxy                  0.998     0.998     0.000
     In    17      S                    0.713     0.722    -0.008
     In    17      Px                   0.246     0.252    -0.006
     In    17      Py                   0.247     0.249    -0.002
     In    17      Pz                   0.242     0.241     0.002
     In    17      S                   -0.267    -0.268     0.001
     In    18      Dzz                  1.000     1.000     0.000
     In    18      Dzy                  0.998     0.998    -0.000
     In    18      Dzx                  0.998     0.998     0.000
     In    18      Dxx-yy               1.000     1.000     0.000
     In    18      Dxy                  0.998     0.998     0.000
     In    18      S                    0.712     0.713    -0.000
     In    18      Px                   0.239     0.239    -0.000
     In    18      Py                   0.241     0.240     0.001
     In    18      Pz                   0.242     0.241     0.001
     In    18      S                   -0.270    -0.271     0.001
     In    19      Dzz                  0.999     0.999     0.000
     In    19      Dzy                  0.998     0.998     0.000
     In    19      Dzx                  0.998     0.998     0.000
     In    19      Dxx-yy               0.999     0.999     0.000
     In    19      Dxy                  0.998     0.998     0.000
     In    19      S                    0.712     0.721    -0.009
     In    19      Px                   0.245     0.252    -0.007
     In    19      Py                   0.247     0.251    -0.004
     In    19      Pz                   0.244     0.242     0.001
     In    19      S                   -0.265    -0.266     0.001
     In    20      Dzz                  1.000     1.000    -0.000
     In    20      Dzy                  0.998     0.998     0.000
     In    20      Dzx                  0.998     0.998     0.000
     In    20      Dxx-yy               1.000     1.000    -0.000
     In    20      Dxy                  0.998     0.998     0.000
     In    20      S                    0.712     0.713    -0.000
     In    20      Px                   0.239     0.239    -0.000
     In    20      Py                   0.241     0.240     0.001
     In    20      Pz                   0.241     0.240     0.001
     In    20      S                   -0.269    -0.270     0.001
     In    21      Dzz                  1.000     1.000    -0.000
     In    21      Dzy                  0.999     0.999     0.000
     In    21      Dzx                  0.998     0.998    -0.000
     In    21      Dxx-yy               1.000     1.000    -0.000
     In    21      Dxy                  0.998     0.998     0.000
     In    21      S                    0.711     0.711    -0.000
     In    21      Px                   0.240     0.240    -0.000
     In    21      Py                   0.240     0.240    -0.000
     In    21      Pz                   0.237     0.237    -0.000
     In    21      S                   -0.271    -0.270    -0.001
     In    22      Dzz                  1.000     1.000     0.000
     In    22      Dzy                  0.998     0.998     0.000
     In    22      Dzx                  0.998     0.998     0.000
     In    22      Dxx-yy               1.000     1.000     0.000
     In    22      Dxy                  0.998     0.998     0.000
     In    22      S                    0.709     0.708     0.001
     In    22      Px                   0.238     0.238    -0.000
     In    22      Py                   0.248     0.247     0.001
     In    22      Pz                   0.240     0.240     0.000
     In    22      S                   -0.265    -0.265     0.001
     In    23      Dzz                  1.000     1.000     0.000
     In    23      Dzy                  0.999     0.999     0.000
     In    23      Dzx                  0.998     0.998    -0.000
     In    23      Dxx-yy               1.000     1.000    -0.000
     In    23      Dxy                  0.998     0.998    -0.000
     In    23      S                    0.711     0.711    -0.000
     In    23      Px                   0.240     0.240    -0.000
     In    23      Py                   0.240     0.240    -0.000
     In    23      Pz                   0.238     0.238    -0.000
     In    23      S                   -0.270    -0.271     0.000
     In    24      Dzz                  1.000     1.000    -0.000
     In    24      Dzy                  0.998     0.998     0.000
     In    24      Dzx                  0.998     0.998     0.000
     In    24      Dxx-yy               1.000     1.000     0.000
     In    24      Dxy                  0.998     0.998     0.000
     In    24      S                    0.709     0.708     0.001
     In    24      Px                   0.237     0.238    -0.000
     In    24      Py                   0.248     0.247     0.001
     In    24      Pz                   0.240     0.240     0.000
     In    24      S                   -0.265    -0.266     0.000
     In    25      Dzz                  1.000     1.000     0.000
     In    25      Dzy                  0.999     0.999     0.000
     In    25      Dzx                  0.998     0.998     0.000
     In    25      Dxx-yy               1.000     1.000    -0.000
     In    25      Dxy                  0.998     0.998     0.000
     In    25      S                    0.712     0.713    -0.001
     In    25      Px                   0.240     0.240     0.000
     In    25      Py                   0.240     0.240    -0.000
     In    25      Pz                   0.240     0.239     0.001
     In    25      S                   -0.265    -0.270     0.005
     In    26      Dzz                  1.000     1.000     0.000
     In    26      Dzy                  0.998     0.998     0.000
     In    26      Dzx                  0.998     0.998     0.000
     In    26      Dxx-yy               1.000     1.000    -0.000
     In    26      Dxy                  0.998     0.998     0.000
     In    26      S                    0.707     0.707     0.000
     In    26      Px                   0.239     0.239    -0.000
     In    26      Py                   0.240     0.240     0.000
     In    26      Pz                   0.246     0.244     0.001
     In    26      S                   -0.264    -0.263    -0.001
     In    27      Dzz                  1.000     1.000     0.000
     In    27      Dzy                  0.998     0.998     0.000
     In    27      Dzx                  0.998     0.998     0.000
     In    27      Dxx-yy               1.000     1.000    -0.000
     In    27      Dxy                  0.998     0.998     0.000
     In    27      S                    0.712     0.712    -0.000
     In    27      Px                   0.240     0.240     0.000
     In    27      Py                   0.240     0.240    -0.000
     In    27      Pz                   0.240     0.240     0.001
     In    27      S                   -0.265    -0.271     0.005
     In    28      Dzz                  1.000     1.000     0.000
     In    28      Dzy                  0.998     0.998     0.000
     In    28      Dzx                  0.998     0.998     0.000
     In    28      Dxx-yy               1.000     1.000     0.000
     In    28      Dxy                  0.998     0.998     0.000
     In    28      S                    0.707     0.707     0.000
     In    28      Px                   0.240     0.240    -0.000
     In    28      Py                   0.240     0.240     0.000
     In    28      Pz                   0.244     0.243     0.001
     In    28      S                   -0.265    -0.263    -0.001
     In    29      Dzz                  0.999     0.999     0.000
     In    29      Dzy                  0.998     0.998     0.000
     In    29      Dzx                  0.998     0.998    -0.000
     In    29      Dxx-yy               1.000     1.000    -0.000
     In    29      Dxy                  0.998     0.998     0.000
     In    29      S                    0.711     0.711     0.000
     In    29      Px                   0.250     0.250     0.000
     In    29      Py                   0.241     0.240     0.001
     In    29      Pz                   0.241     0.241    -0.001
     In    29      S                   -0.267    -0.266    -0.001
     In    30      Dzz                  1.000     1.000     0.000
     In    30      Dzy                  0.998     0.998     0.000
     In    30      Dzx                  0.998     0.998     0.000
     In    30      Dxx-yy               1.000     1.000     0.000
     In    30      Dxy                  0.998     0.998     0.000
     In    30      S                    0.707     0.707     0.000
     In    30      Px                   0.241     0.241    -0.000
     In    30      Py                   0.241     0.241     0.000
     In    30      Pz                   0.242     0.242    -0.000
     In    30      S                   -0.264    -0.266     0.001
     In    31      Dzz                  0.999     0.999     0.000
     In    31      Dzy                  0.998     0.998    -0.000
     In    31      Dzx                  0.998     0.998     0.000
     In    31      Dxx-yy               1.000     1.000    -0.000
     In    31      Dxy                  0.998     0.998     0.000
     In    31      S                    0.710     0.710    -0.000
     In    31      Px                   0.250     0.250    -0.000
     In    31      Py                   0.241     0.240     0.001
     In    31      Pz                   0.240     0.241    -0.000
     In    31      S                   -0.267    -0.267     0.000
     In    32      Dzz                  1.000     1.000     0.000
     In    32      Dzy                  0.998     0.998     0.000
     In    32      Dzx                  0.998     0.998     0.000
     In    32      Dxx-yy               1.000     1.000     0.000
     In    32      Dxy                  0.998     0.998     0.000
     In    32      S                    0.707     0.707     0.000
     In    32      Px                   0.241     0.241    -0.000
     In    32      Py                   0.241     0.241     0.000
     In    32      Pz                   0.243     0.243    -0.000
     In    32      S                   -0.264    -0.266     0.001
  ---------------------------------------------------------------
                           Total:     290.996   290.004     0.992
  ---------------------------------------------------------------

     Atomic Populations (Mulliken)
     -----------------------------
Species          Ion Spin      s       p       d       f      Total   Charge(e)   Spin(hbar/2)
==============================================================================================
  P               1   up:     0.871   1.971   0.000   0.000   2.842    -0.643        0.041
                  1   dn:     0.867   1.934   0.000   0.000   2.801
  P               2   up:     0.897   2.044   0.000   0.000   2.941    -0.445        0.437
                  2   dn:     0.886   1.618   0.000   0.000   2.504
  P               3   up:     0.872   1.955   0.000   0.000   2.828    -0.642        0.013
                  3   dn:     0.868   1.946   0.000   0.000   2.814
  P               4   up:     0.867   1.966   0.000   0.000   2.832    -0.660        0.005
                  4   dn:     0.866   1.962   0.000   0.000   2.828
  P               5   up:     0.871   1.978   0.000   0.000   2.849    -0.649        0.049
                  5   dn:     0.866   1.934   0.000   0.000   2.800
  P               6   up:     0.867   1.970   0.000   0.000   2.838    -0.676       -0.000
                  6   dn:     0.867   1.971   0.000   0.000   2.838
  P               7   up:     0.867   1.970   0.000   0.000   2.836    -0.673       -0.000
                  7   dn:     0.867   1.970   0.000   0.000   2.837
  P               8   up:     0.868   1.973   0.000   0.000   2.841    -0.674        0.008
                  8   dn:     0.867   1.966   0.000   0.000   2.833
  P               9   up:     0.867   1.970   0.000   0.000   2.837    -0.674        0.000
                  9   dn:     0.867   1.970   0.000   0.000   2.837
  P              10   up:     0.867   1.971   0.000   0.000   2.838    -0.677       -0.000
                 10   dn:     0.867   1.971   0.000   0.000   2.839
  P              11   up:     0.872   1.955   0.000   0.000   2.828    -0.639        0.017
                 11   dn:     0.868   1.943   0.000   0.000   2.811
  P              12   up:     0.868   1.974   0.000   0.000   2.842    -0.674        0.009
                 12   dn:     0.867   1.966   0.000   0.000   2.833
  P              13   up:     0.867   1.970   0.000   0.000   2.837    -0.673        0.000
                 13   dn:     0.867   1.969   0.000   0.000   2.837
  P              14   up:     0.864   1.978   0.000   0.000   2.842    -0.681        0.002
                 14   dn:     0.864   1.976   0.000   0.000   2.839
  P              15   up:     0.867   1.970   0.000   0.000   2.837    -0.674       -0.001
                 15   dn:     0.867   1.971   0.000   0.000   2.837
  P              16   up:     0.866   1.967   0.000   0.000   2.834    -0.663        0.004
                 16   dn:     0.866   1.964   0.000   0.000   2.830
  P              17   up:     0.867   1.977   0.000   0.000   2.844    -0.675        0.013
                 17   dn:     0.866   1.966   0.000   0.000   2.831
  P              18   up:     0.867   1.972   0.000   0.000   2.838    -0.677       -0.001
                 18   dn:     0.867   1.972   0.000   0.000   2.839
  P              19   up:     0.868   1.973   0.000   0.000   2.841    -0.674        0.007
                 19   dn:     0.867   1.966   0.000   0.000   2.833
  P              20   up:     0.867   1.970   0.000   0.000   2.837    -0.674       -0.000
                 20   dn:     0.867   1.970   0.000   0.000   2.837
  P              21   up:     0.867   1.975   0.000   0.000   2.843    -0.676        0.009
                 21   dn:     0.866   1.967   0.000   0.000   2.833
  P              22   up:     0.864   1.981   0.000   0.000   2.844    -0.680        0.009
                 22   dn:     0.863   1.973   0.000   0.000   2.835
  P              23   up:     0.866   1.971   0.000   0.000   2.838    -0.675        0.001
                 23   dn:     0.866   1.971   0.000   0.000   2.837
  P              24   up:     0.866   1.972   0.000   0.000   2.838    -0.675        0.001
                 24   dn:     0.866   1.971   0.000   0.000   2.837
  P              25   up:     0.867   1.971   0.000   0.000   2.838    -0.675        0.000
                 25   dn:     0.867   1.971   0.000   0.000   2.837
  P              26   up:     0.865   1.976   0.000   0.000   2.841    -0.678        0.004
                 26   dn:     0.865   1.973   0.000   0.000   2.837
  P              27   up:     0.868   1.973   0.000   0.000   2.841    -0.674        0.008
                 27   dn:     0.867   1.966   0.000   0.000   2.833
  P              28   up:     0.866   1.972   0.000   0.000   2.838    -0.675        0.001
                 28   dn:     0.866   1.971   0.000   0.000   2.837
  P              29   up:     0.867   1.971   0.000   0.000   2.838    -0.675       -0.000
                 29   dn:     0.867   1.971   0.000   0.000   2.838
  P              30   up:     0.867   1.970   0.000   0.000   2.837    -0.674       -0.000
                 30   dn:     0.867   1.970   0.000   0.000   2.837
  P              31   up:     0.867   1.971   0.000   0.000   2.838    -0.675        0.001
                 31   dn:     0.867   1.971   0.000   0.000   2.837
  P              32   up:     0.867   1.970   0.000   0.000   2.837    -0.674       -0.000
                 32   dn:     0.867   1.970   0.000   0.000   2.837
  P              33   up:     0.893   2.015   0.000   0.000   2.908    -0.455        0.360
                 33   dn:     0.884   1.663   0.000   0.000   2.548
  In              1   up:     0.452   0.716   4.995   0.000   6.163     0.678        0.004
                  1   dn:     0.449   0.715   4.995   0.000   6.159
  In              2   up:     0.428   0.702   4.995   0.000   6.125     0.732       -0.019
                  2   dn:     0.439   0.711   4.994   0.000   6.143
  In              3   up:     0.451   0.717   4.995   0.000   6.163     0.680        0.005
                  3   dn:     0.448   0.715   4.995   0.000   6.158
  In              4   up:     0.428   0.707   4.995   0.000   6.130     0.726       -0.013
                  4   dn:     0.437   0.713   4.994   0.000   6.144
  In              5   up:     0.445   0.733   4.994   0.000   6.172     0.658        0.002
                  5   dn:     0.445   0.731   4.994   0.000   6.170
  In              6   up:     0.452   0.715   4.995   0.000   6.161     0.680        0.003
                  6   dn:     0.448   0.715   4.995   0.000   6.158
  In              7   up:     0.444   0.733   4.994   0.000   6.172     0.660        0.003
                  7   dn:     0.444   0.730   4.994   0.000   6.168
  In              8   up:     0.453   0.713   4.995   0.000   6.161     0.684        0.005
                  8   dn:     0.447   0.713   4.995   0.000   6.155
  In              9   up:     0.450   0.732   4.994   0.000   6.177     0.657        0.010
                  9   dn:     0.447   0.726   4.994   0.000   6.167
  In             10   up:     0.447   0.714   4.995   0.000   6.156     0.683       -0.005
                 10   dn:     0.452   0.714   4.995   0.000   6.161
  In             11   up:     0.451   0.734   4.994   0.000   6.179     0.651        0.009
                 11   dn:     0.448   0.728   4.994   0.000   6.170
  In             12   up:     0.447   0.714   4.995   0.000   6.155     0.684       -0.005
                 12   dn:     0.452   0.714   4.995   0.000   6.161
  In             13   up:     0.441   0.724   4.995   0.000   6.159     0.680       -0.001
                 13   dn:     0.441   0.724   4.995   0.000   6.160
  In             14   up:     0.442   0.723   4.995   0.000   6.160     0.683        0.003
                 14   dn:     0.441   0.721   4.995   0.000   6.157
  In             15   up:     0.441   0.724   4.995   0.000   6.159     0.681       -0.000
                 15   dn:     0.441   0.724   4.995   0.000   6.160
  In             16   up:     0.442   0.723   4.995   0.000   6.160     0.684        0.004
                 16   dn:     0.440   0.722   4.995   0.000   6.156
  In             17   up:     0.446   0.735   4.993   0.000   6.175     0.638       -0.013
                 17   dn:     0.453   0.741   4.993   0.000   6.187
  In             18   up:     0.443   0.722   4.995   0.000   6.159     0.685        0.002
                 18   dn:     0.442   0.720   4.995   0.000   6.156
  In             19   up:     0.447   0.735   4.993   0.000   6.175     0.633       -0.017
                 19   dn:     0.455   0.745   4.993   0.000   6.192
  In             20   up:     0.443   0.722   4.995   0.000   6.159     0.683        0.002
                 20   dn:     0.443   0.720   4.995   0.000   6.158
  In             21   up:     0.440   0.717   4.995   0.000   6.152     0.694       -0.002
                 21   dn:     0.442   0.718   4.995   0.000   6.154
  In             22   up:     0.444   0.725   4.994   0.000   6.163     0.675        0.002
                 22   dn:     0.443   0.724   4.994   0.000   6.161
  In             23   up:     0.441   0.718   4.995   0.000   6.153     0.693       -0.001
                 23   dn:     0.441   0.719   4.995   0.000   6.154
  In             24   up:     0.444   0.726   4.994   0.000   6.164     0.676        0.003
                 24   dn:     0.442   0.724   4.994   0.000   6.161
  In             25   up:     0.448   0.720   4.995   0.000   6.162     0.681        0.005
                 25   dn:     0.443   0.719   4.995   0.000   6.157
  In             26   up:     0.443   0.724   4.994   0.000   6.162     0.677        0.001
                 26   dn:     0.444   0.723   4.994   0.000   6.161
  In             27   up:     0.447   0.720   4.995   0.000   6.161     0.683        0.006
                 27   dn:     0.442   0.719   4.995   0.000   6.156
  In             28   up:     0.443   0.724   4.994   0.000   6.161     0.679        0.001
                 28   dn:     0.444   0.722   4.994   0.000   6.160
  In             29   up:     0.444   0.732   4.994   0.000   6.170     0.660        0.000
                 29   dn:     0.444   0.731   4.994   0.000   6.170
  In             30   up:     0.442   0.725   4.994   0.000   6.162     0.678        0.001
                 30   dn:     0.441   0.725   4.994   0.000   6.160
  In             31   up:     0.443   0.731   4.994   0.000   6.169     0.663        0.000
                 31   dn:     0.443   0.731   4.994   0.000   6.168
  In             32   up:     0.442   0.725   4.994   0.000   6.162     0.678        0.001
                 32   dn:     0.441   0.725   4.994   0.000   6.160
==============================================================================================

                 Bond                   Population        Spin       Length (A)
================================================================================
              P 2  -- P 33                   0.40        -0.11          2.12454
              P 2  -- In 19                  0.75        -0.01          2.47187
              P 33 -- In 17                  0.74        -0.00          2.47667
              P 4  -- In 29                  0.69         0.00          2.50536
              P 16 -- In 31                  0.69         0.00          2.50747
              P 21 -- In 17                  0.65         0.00          2.51723
              P 14 -- In 29                  0.66         0.00          2.51736
              P 17 -- In 19                  0.64         0.00          2.51826
              P 14 -- In 31                  0.66         0.00          2.51828
              P 5  -- In 7                   0.64        -0.00          2.52295
              P 19 -- In 19                  0.66        -0.01          2.52401
              P 22 -- In 5                   0.66        -0.00          2.52602
              P 1  -- In 5                   0.63         0.00          2.52612
              P 22 -- In 24                  0.67        -0.00          2.52715
              P 22 -- In 7                   0.66        -0.00          2.52745
              P 12 -- In 2                   0.68        -0.00          2.52925
              P 22 -- In 22                  0.67        -0.00          2.52939
              P 27 -- In 17                  0.65        -0.01          2.53095
              P 26 -- In 26                  0.67         0.00          2.53475
              P 26 -- In 11                  0.65        -0.00          2.53476
              P 17 -- In 24                  0.64        -0.00          2.53620
              P 8  -- In 4                   0.68        -0.00          2.53683
              P 11 -- In 11                  0.62        -0.00          2.53798
              P 1  -- In 2                   0.63        -0.01          2.53881
              P 21 -- In 22                  0.63        -0.00          2.53964
              P 26 -- In 28                  0.67         0.00          2.53990
              P 26 -- In 9                   0.65        -0.00          2.54145
              P 3  -- In 9                   0.63        -0.00          2.54226
              P 5  -- In 4                   0.62        -0.02          2.54261
              P 28 -- In 32                  0.67         0.00          2.54266
              P 14 -- In 16                  0.68        -0.00          2.54361
              P 24 -- In 30                  0.67        -0.00          2.54407
              P 18 -- In 20                  0.66         0.00          2.54426
              P 18 -- In 18                  0.66         0.00          2.54476
              P 7  -- In 7                   0.66         0.00          2.54537
              P 10 -- In 27                  0.66         0.00          2.54543
              P 10 -- In 25                  0.66         0.00          2.54596
              P 25 -- In 32                  0.66        -0.00          2.54606
              P 31 -- In 32                  0.67         0.00          2.54613
              P 20 -- In 26                  0.67        -0.00          2.54626
              P 14 -- In 14                  0.67        -0.00          2.54639
              P 32 -- In 28                  0.67        -0.00          2.54646
              P 20 -- In 24                  0.67         0.00          2.54660
              P 29 -- In 30                  0.67        -0.00          2.54664
              P 32 -- In 22                  0.67         0.00          2.54666
              P 7  -- In 13                  0.67        -0.00          2.54674
              P 23 -- In 30                  0.66        -0.00          2.54685
              P 9  -- In 13                  0.67         0.00          2.54711
              P 15 -- In 15                  0.67        -0.00          2.54753
              P 6  -- In 21                  0.66         0.00          2.54760
              P 15 -- In 5                   0.66         0.00          2.54793
              P 24 -- In 20                  0.66        -0.00          2.54805
              P 28 -- In 5                   0.65         0.00          2.54818
              P 13 -- In 15                  0.67         0.00          2.54888
              P 28 -- In 18                  0.66        -0.00          2.54906
              P 24 -- In 7                   0.66         0.00          2.54916
              P 1  -- In 3                   0.67        -0.00          2.54927
              P 5  -- In 1                   0.67        -0.00          2.54930
              P 31 -- In 31                  0.65        -0.00          2.54941
              P 25 -- In 29                  0.65         0.00          2.55021
              P 19 -- In 26                  0.64         0.00          2.55022
              P 23 -- In 24                  0.66         0.00          2.55056
              P 23 -- In 29                  0.65        -0.00          2.55060
              P 6  -- In 23                  0.66        -0.00          2.55091
              P 9  -- In 11                  0.65         0.00          2.55110
              P 13 -- In 9                   0.65        -0.00          2.55120
              P 29 -- In 31                  0.65         0.00          2.55128
              P 31 -- In 22                  0.66         0.00          2.55130
              P 9  -- In 16                  0.67        -0.00          2.55133
              P 27 -- In 28                  0.64         0.00          2.55157
              P 13 -- In 14                  0.67         0.00          2.55170
              P 17 -- In 18                  0.65        -0.00          2.55175
              P 16 -- In 12                  0.68         0.00          2.55188
              P 7  -- In 14                  0.67         0.00          2.55189
              P 4  -- In 10                  0.67         0.00          2.55193
              P 23 -- In 23                  0.67         0.00          2.55198
              P 15 -- In 16                  0.67         0.00          2.55225
              P 25 -- In 26                  0.66        -0.00          2.55258
              P 11 -- In 2                   0.64        -0.00          2.55262
              P 12 -- In 21                  0.66         0.00          2.55284
              P 30 -- In 15                  0.66         0.00          2.55339
              P 8  -- In 23                  0.66         0.00          2.55350
              P 16 -- In 6                   0.66        -0.00          2.55360
              P 20 -- In 13                  0.66         0.00          2.55363
              P 29 -- In 25                  0.66         0.00          2.55371
              P 21 -- In 20                  0.65        -0.00          2.55393
              P 29 -- In 28                  0.66        -0.00          2.55407
              P 32 -- In 15                  0.66         0.00          2.55447
              P 4  -- In 8                   0.66        -0.00          2.55464
              P 3  -- In 3                   0.66        -0.00          2.55469
              P 3  -- In 4                   0.64         0.00          2.55470
              P 30 -- In 30                  0.66         0.00          2.55489
              P 30 -- In 13                  0.66         0.00          2.55495
              P 12 -- In 27                  0.65        -0.00          2.55508
              P 28 -- In 11                  0.65        -0.00          2.55522
              P 12 -- In 16                  0.63        -0.00          2.55524
              P 18 -- In 3                   0.65         0.00          2.55543
              P 15 -- In 6                   0.65         0.00          2.55552
              P 25 -- In 27                  0.66        -0.00          2.55581
              P 18 -- In 1                   0.64         0.00          2.55607
              P 24 -- In 9                   0.65        -0.00          2.55618
              P 27 -- In 18                  0.65         0.00          2.55619
              P 11 -- In 1                   0.66        -0.00          2.55638
              P 30 -- In 32                  0.66         0.00          2.55657
              P 8  -- In 14                  0.63        -0.00          2.55658
              P 8  -- In 25                  0.65        -0.00          2.55692
              P 19 -- In 20                  0.65         0.00          2.55703
              P 6  -- In 8                   0.65         0.00          2.55742
              P 31 -- In 21                  0.66         0.00          2.55745
              P 17 -- In 21                  0.68         0.00          2.55839
              P 21 -- In 23                  0.67         0.00          2.55923
              P 32 -- In 1                   0.65         0.00          2.55925
              P 10 -- In 10                  0.65        -0.00          2.55995
              P 20 -- In 3                   0.66         0.00          2.56018
              P 10 -- In 12                  0.65        -0.00          2.56043
              P 6  -- In 6                   0.65         0.00          2.56064
              P 27 -- In 27                  0.67         0.00          2.56114
              P 5  -- In 6                   0.65         0.00          2.56297
              P 7  -- In 8                   0.64        -0.00          2.56369
              P 19 -- In 25                  0.66         0.00          2.56378
              P 9  -- In 10                  0.64        -0.00          2.56438
              P 1  -- In 8                   0.64         0.00          2.56487
              P 13 -- In 12                  0.64        -0.00          2.56540
              P 11 -- In 12                  0.65         0.01          2.56762
              P 16 -- In 17                  0.54         0.00          2.56792
              P 3  -- In 10                  0.65         0.01          2.56953
              P 4  -- In 19                  0.53         0.00          2.57676
              P 33 -- In 4                   0.52         0.04          2.59346
              P 2  -- In 2                   0.46         0.03          2.62683
              P 33 -- In 2                   0.11        -0.03          2.87518
              P 2  -- In 4                   0.07        -0.04          2.93224
================================================================================

 Hirshfeld supercell size:           2           2           2
Standard grid dimensions: 240 240 240
Fine grid dimensions:     240 240 240


     Hirshfeld Analysis
     ------------------
Species   Ion     Hirshfeld Charge (e)  Spin (hbar/2)
===================================================
  P        1                -0.23        0.03
  P        2                -0.16        0.33
  P        3                -0.23        0.02
  P        4                -0.24        0.01
  P        5                -0.23        0.04
  P        6                -0.24        0.00
  P        7                -0.24       -0.00
  P        8                -0.23        0.01
  P        9                -0.24        0.00
  P       10                -0.24        0.00
  P       11                -0.23        0.02
  P       12                -0.23        0.01
  P       13                -0.24        0.00
  P       14                -0.24        0.00
  P       15                -0.24       -0.00
  P       16                -0.24        0.01
  P       17                -0.24        0.01
  P       18                -0.24       -0.00
  P       19                -0.23        0.01
  P       20                -0.24        0.00
  P       21                -0.24        0.01
  P       22                -0.24        0.01
  P       23                -0.24        0.00
  P       24                -0.24        0.00
  P       25                -0.24        0.00
  P       26                -0.24        0.00
  P       27                -0.23        0.01
  P       28                -0.24        0.00
  P       29                -0.24        0.00
  P       30                -0.24        0.00
  P       31                -0.24        0.00
  P       32                -0.24        0.00
  P       33                -0.17        0.28
  In       1                 0.25        0.00
  In       2                 0.26        0.04
  In       3                 0.25        0.00
  In       4                 0.26        0.04
  In       5                 0.23        0.00
  In       6                 0.25        0.00
  In       7                 0.23        0.01
  In       8                 0.25        0.00
  In       9                 0.23        0.01
  In      10                 0.25        0.00
  In      11                 0.23        0.01
  In      12                 0.25        0.00
  In      13                 0.24        0.00
  In      14                 0.24        0.00
  In      15                 0.24        0.00
  In      16                 0.24        0.00
  In      17                 0.22        0.02
  In      18                 0.24        0.00
  In      19                 0.22        0.02
  In      20                 0.24        0.00
  In      21                 0.25        0.00
  In      22                 0.24        0.00
  In      23                 0.25        0.00
  In      24                 0.24        0.00
  In      25                 0.25        0.00
  In      26                 0.24        0.00
  In      27                 0.25        0.00
  In      28                 0.24        0.00
  In      29                 0.23        0.00
  In      30                 0.24        0.00
  In      31                 0.23        0.00
  In      32                 0.23        0.00
===================================================

 
 A BibTeX formatted list of references used in this run has been written to 
 P_Interstitial_Migration_Dumbbell_Dumbbell+_Singlepoints_1.bib
 
Initialisation time =     30.32 s
Calculation time    =   7839.02 s
Finalisation time   =    155.70 s
Total time          =   8025.03 s
Peak Memory Use     = 9638912 kB
 
Overall parallel efficiency rating: Poor (36%)
 
Data was distributed by:-
G-vector (3-way); efficiency rating: Poor (39%)
k-point (36-way); efficiency rating: Very good (84%)
