 +-------------------------------------------------+
 |                                                 |
 |      CCC   AA    SSS  TTTTT  EEEEE  PPPP        |
 |     C     A  A  S       T    E      P   P       |
 |     C     AAAA   SS     T    EEE    PPPP        |
 |     C     A  A     S    T    E      P           |
 |      CCC  A  A  SSS     T    EEEEE  P           |
 |                                                 |
 +-------------------------------------------------+
 |                                                 |
 | Welcome to Academic Release CASTEP version 22.11|
 | Ab Initio Total Energy Program                  |
 |                                                 |
 | Authors:                                        |
 | M. Segall, M. Probert, C. Pickard, P. Hasnip,   |
 | S. Clark, K. Refson, J. R. Yates, M. Payne      |
 |                                                 |
 | Contributors:                                   |
 | P. Lindan, P. Haynes, J. White, V. Milman,      |
 | N. Govind, M. Gibson, P. Tulip, V. Cocula,      |
 | B. Montanari, D. Quigley, M. Glover,            |
 | L. Bernasconi, A. Perlov, M. Plummer,           |
 | E. McNellis, J. Meyer, J. Gale, D. Jochym       |
 | J. Aarons, B. Walker, R. Gillen, D. Jones       |
 | T. Green, I. J. Bush, C. J. Armstrong,          |
 | E. J. Higgins, E. L. Brown, M. S. McFly,        |
 | J. Wilkins, B-C. Shih, P. J. P. Byrne,          |
 | R. J. Maurer, J. C. Womack, J. Dziedzic,        |
 | A. Bartok-Partay, L. LeBlanc, T. K. Stenczel,   |
 | J. Kermode, S. Sturniolo, B. Shi, B. Durham     |
 | M. Evans, M. J. Smith                           |
 |                                                 |
 | Copyright (c) 2000 - 2021                       |
 |                                                 |
 |     Distributed under license from Cambridge    |
 |     Enterprise for academic use only.           |
 |                                                 |
 | Please cite                                     |
 |                                                 |
 |     "First principles methods using CASTEP"     |
 |                                                 |
 |         Zeitschrift fuer Kristallographie       |
 |           220(5-6) pp. 567-570 (2005)           |
 |                                                 |
 | S. J. Clark, M. D. Segall, C. J. Pickard,       |
 | P. J. Hasnip, M. J. Probert, K. Refson,         |
 | M. C. Payne                                     |
 |                                                 |
 |       in all publications arising from          |
 |              your use of CASTEP                 |
 |                                                 |
 +-------------------------------------------------+
 |                                                 |
 |              http://www.castep.org              |
 |                                                 |
 +-------------------------------------------------+



 Compiled for linux_x86_64_gfortran10-XT on Thu, 16 Mar 2023 13:12:36 +0000
 from code version Version unavailable
 Compiler: GNU Fortran 11.2.0; Optimisation: fast
 MATHLIBS: LibSci (LAPACK version 3.10.1)
 FFT Lib : fftw3 version commercial-fftw-3.3.10-sse2-avx-avx2-avx2_128
 Fundamental constants values: CODATA 2014

 Run started: Mon, 25 Mar 2024 19:36:47 +0000

 Atomic calculation performed for P: 1s2 2s2 2p6 3s2 3p3

 Converged in 47 iterations to an ae energy of -9309.074 eV

   ============================================================                
   | Pseudopotential Report - Date of generation 25-03-2024   |                
   ------------------------------------------------------------                
   | Element: P Ionic charge:  5.00 Level of theory: RSCAN    |                
   | Atomic Solver: Koelling-Harmon                           |                
   |                                                          |                
   |               Reference Electronic Structure             |                
   |         Orbital         Occupation         Energy        |                
   |            3s              2.000           -0.535        |                
   |            3p              3.000           -0.209        |                
   |                                                          |                
   |                 Pseudopotential Definition               |                
   |        Beta     l      e      Rc     scheme   norm       |                
   |          1      0   -0.535   1.807     qc      0         |                
   |          2      0    0.250   1.807     qc      0         |                
   |          3      1   -0.209   1.807     qc      0         |                
   |          4      1    0.250   1.807     qc      0         |                
   |          5      2    0.000   1.807     qc      0         |                
   |          6      2    0.250   1.807     qc      0         |                
   |         loc     3    0.000   1.807     pn      0         |                
   |                                                          |                
   | Augmentation charge Rinner = 1.263                       |                
   | Partial core correction Rc = 1.263                       |                
   ------------------------------------------------------------                
   | "3|1.8|4|4|5|30:31:32"                                   |                
   ------------------------------------------------------------                
   |      Author: Chris J. Pickard, Cambridge University      |                
   ============================================================                
 Warning: otfg_output_psp cannot write out meta-GGA pseudopotentials presently.

 Atomic calculation performed for In:
 1s2 2s2 2p6 3s2 3p6 3d10 4s2 4p6 4d10 5s2 5p1

 Converged in 84 iterations to an ae energy of -160093.327 eV

   ============================================================                
   | Pseudopotential Report - Date of generation 25-03-2024   |                
   ------------------------------------------------------------                
   | Element: In Ionic charge: 13.00 Level of theory: RSCAN   |                
   | Atomic Solver: Koelling-Harmon                           |                
   |                                                          |                
   |               Reference Electronic Structure             |                
   |         Orbital         Occupation         Energy        |                
   |            4d             10.000           -0.711        |                
   |            5s              2.000           -0.313        |                
   |            5p              1.000           -0.095        |                
   |                                                          |                
   |                 Pseudopotential Definition               |                
   |        Beta     l      e      Rc     scheme   norm       |                
   |          1      0   -0.313   2.501     qc      0         |                
   |          2      0    0.250   2.501     qc      0         |                
   |          3      1   -0.095   2.501     qc      0         |                
   |          4      1    0.250   2.501     qc      0         |                
   |          5      2   -0.711   2.207     qc      0         |                
   |          6      2    0.250   2.207     qc      0         |                
   |         loc     3    0.000   2.501     pn      0         |                
   |                                                          |                
   | Augmentation charge Rinner = 1.504                       |                
   | Partial core correction Rc = 1.504                       |                
   ------------------------------------------------------------                
   | "3|2.5|2.5|1.5|7|8|9|50:51:42U2.2U2.2"                   |                
   ------------------------------------------------------------                
   |      Author: Chris J. Pickard, Cambridge University      |                
   ============================================================                
 Warning: otfg_output_psp cannot write out meta-GGA pseudopotentials presently.

 Pseudo atomic calculation performed for P 3s2 3p3

 Converged in 23 iterations to a total energy of -208.0292 eV

 Pseudo atomic calculation performed for In 4d10 5s2 5p1

 Converged in 42 iterations to a total energy of -1747.4500 eV
 Calculation parallelised over 208 processes.
 Data is distributed by G-vector(4-way) and k-point(52-way)
 Each process may use up to 2 threads.

 ************************************ Title ************************************
 

 ***************************** General Parameters ******************************
  
 output verbosity                               : normal  (1)
 write checkpoint data to                       : StackingFaultStructs_(0_0_1)_(1_1_0)_6.check
 type of calculation                            : geometry optimization
 stress calculation                             : off
 density difference calculation                 : off
 electron localisation func (ELF) calculation   : off
 Hirshfeld analysis                             : on
 polarisation (Berry phase) analysis            : off
 molecular orbital projected DOS                : off
 deltaSCF calculation                           : off
 unlimited duration calculation
 timing information                             : on
 memory usage estimate                          : on
 write extra output files                       : on
 write final potential to formatted file        : off
 write final density to formatted file          : off
 write BibTeX reference list                    : on
 write OTFG pseudopotential files               : on
 write electrostatic potential file             : on
 write bands file                               : on
 checkpoint writing                             : off
  
 output         length unit                     : A
 output           mass unit                     : amu
 output           time unit                     : ps
 output         charge unit                     : e
 output           spin unit                     : hbar/2
 output         energy unit                     : eV
 output          force unit                     : eV/A
 output       velocity unit                     : A/ps
 output       pressure unit                     : GPa
 output     inv_length unit                     : 1/A
 output      frequency unit                     : cm-1
 output force constant unit                     : eV/A**2
 output         volume unit                     : A**3
 output   IR intensity unit                     : (D/A)**2/amu
 output         dipole unit                     : D
 output         efield unit                     : eV/A/e
 output        entropy unit                     : J/mol/K
 output    efield chi2 unit                     : pm/V
  
 wavefunctions paging                           : none
 random number generator seed                   : randomised (193647607)
 data distribution                              : optimal for this architecture
 optimization strategy                          : balance speed and memory

 *********************** Exchange-Correlation Parameters ***********************
  
 using functional                               : RSCAN
 relativistic treatment                         : Koelling-Harmon
 DFT+D: Semi-empirical dispersion correction    : off

 ************************* Pseudopotential Parameters **************************
  
 pseudopotential representation                 : reciprocal space
 <beta|phi> representation                      : reciprocal space
 spin-orbit coupling                            : off

 **************************** Basis Set Parameters *****************************
  
 plane wave basis set cut-off                   :   900.0000   eV
 size of standard grid                          :     2.0000
 size of   fine   gmax                          :    30.7390   1/A
 finite basis set correction                    : none

 **************************** Electronic Parameters ****************************
  
 number of  electrons                           :  288.0    
 net charge of system                           :  0.000    
 treating system as non-spin-polarized
 number of bands                                :        173

 ********************* Electronic Minimization Parameters **********************
  
 Method: Treating system as metallic with density mixing treatment of electrons,
         and number of  SD  steps               :          1
         and number of  CG  steps               :          4
  
 total energy / atom convergence tol.           : 0.1000E-07   eV
 eigen-energy convergence tolerance             : 0.2222E-08   eV
 max force / atom convergence tol.              : ignored
 convergence tolerance window                   :          3   cycles
 max. number of SCF cycles                      :         50
 number of fixed-spin iterations                :         10
 smearing scheme                                : Gaussian
 smearing width                                 : 0.2000       eV
 Fermi energy convergence tolerance             : 0.2721E-13   eV
 periodic dipole correction                     : NONE

 ************************** Density Mixing Parameters **************************
  
 density-mixing scheme                          : Pulay
 max. length of mixing history                  :         15
 charge density mixing amplitude                : 0.5000    
 cut-off energy for mixing                      :  900.0       eV

 *********************** Population Analysis Parameters ************************
  
 Population analysis with cutoff                :  3.000       A
 Population analysis output                     : summary and pdos components

 ********************** Geometry Optimization Parameters ***********************
  
 optimization method                            : LBFGS
 max. no. of LBFGS updates                      : unbounded
 preconditioned LBFGS is activated
 preconditioner type                            : EXP
     stabilization constant                     :     0.1000
     parameter A                                :     3.0000
     nearest neighbor distance                  : automatic
     cut-off distance                           : automatic
     parameter mu                               : automatic
 variable cell method                           : fixed basis quality
 max. number of steps                           :         30
 estimated bulk modulus                         :  500.0       GPa
 estimated <frequency>                          :  1668.       cm-1
 geom line minimiser                            : on
 with line minimiser tolerance                  :     0.4000
 total energy convergence tolerance             : 0.2000E-04   eV/atom
        max ionic |force| tolerance             : 0.1000E-02   eV/A
 max ionic |displacement| tolerance             : 0.1000E-02   A
   max |stress component| tolerance             : 0.1000       GPa
 convergence tolerance window                   :          2   steps
 backup results every                           :          5   steps
 write geom trajectory file                     : on

 *******************************************************************************
  

                           -------------------------------
                                      Unit Cell
                           -------------------------------
        Real Lattice(A)                      Reciprocal Lattice(1/A)
     8.3456610     0.0000000     0.0000000        0.752868503   0.000000000   0.000000000
     0.0000000     8.3456610     0.0000000        0.000000000   0.752868503  -0.184277938
     0.0000000     2.8888830    11.8025470        0.000000000   0.000000000   0.532358423

                       Lattice parameters(A)       Cell Angles
                    a =      8.345661          alpha =   76.246253
                    b =      8.345661          beta  =   90.000000
                    c =     12.150957          gamma =   90.000000

                       Current cell volume =           822.048078       A**3
                                   density =             2.837630   AMU/A**3
                                           =             4.711995     g/cm^3

                           -------------------------------
                                     Cell Contents
                           -------------------------------
                         Total number of ions in cell =   32
                      Total number of species in cell =    2
                        Max number of any one species =   16

            xxxxxxxxxxxxxxxxxxxxxxxxxxxxxxxxxxxxxxxxxxxxxxxxxxxxxxxxxxxx
            x  Element    Atom        Fractional coordinates of atoms  x
            x            Number           u          v          w      x
            x----------------------------------------------------------x
            x  P            1         0.500000   0.618919   0.378679   x 
            x  P            2         0.250000  -0.048972   0.141476   x 
            x  P            3         0.500000   0.457929   0.843759   x 
            x  P            4         0.500000   0.118919   0.378679   x 
            x  P            5         0.750000   0.287760   0.613137   x 
            x  P            6         0.000000   0.118919   0.378679   x 
            x  P            7         0.250000   0.451028   0.141476   x 
            x  P            8         0.250000   0.287760   0.613137   x 
            x  P            9         0.750000   0.451028   0.141476   x 
            x  P           10         0.000000  -0.042071   0.843759   x 
            x  P           11         0.000000   0.618919   0.378679   x 
            x  P           12         0.500000  -0.042071   0.843759   x 
            x  P           13         0.250000  -0.212240   0.613137   x 
            x  P           14         0.750000  -0.212240   0.613137   x 
            x  P           15         0.000000   0.457929   0.843759   x 
            x  P           16         0.750000  -0.048972   0.141476   x 
            x  In           1         0.250000   0.659124   0.262531   x 
            x  In           2         0.500000   0.327556   0.498171   x 
            x  In           3         0.750000  -0.003965   0.733676   x 
            x  In           4         0.000000   0.327556   0.498171   x 
            x  In           5         0.250000  -0.003965   0.733676   x 
            x  In           6         0.000000  -0.172444   0.498171   x 
            x  In           7         0.500000  -0.172444   0.498171   x 
            x  In           8         0.750000   0.496035   0.733676   x 
            x  In           9         0.750000   0.659124   0.262531   x 
            x  In          10         0.500000   0.490111   0.028570   x 
            x  In          11         0.750000   0.159124   0.262531   x 
            x  In          12         0.250000   0.496035   0.733676   x 
            x  In          13         0.000000   0.490111   0.028570   x 
            x  In          14         0.250000   0.159124   0.262531   x 
            x  In          15         0.000000  -0.009889   0.028570   x 
            x  In          16         0.500000  -0.009889   0.028570   x 
            xxxxxxxxxxxxxxxxxxxxxxxxxxxxxxxxxxxxxxxxxxxxxxxxxxxxxxxxxxxx


                         No user defined ionic velocities

                           -------------------------------
                                   Details of Species
                           -------------------------------

                               Mass of species in AMU
                                    P   30.9737600
                                    In  114.8180000

                          Electric Quadrupole Moment (Barn)
                                    P    1.0000000 No Isotope Defined
                                    In    0.7700000 Isotope115

                          Files used for pseudopotentials:
                                    P 3|1.8|4|4|5|30:31:32
                                    In 3|2.5|2.5|1.5|7|8|9|50:51:42U2.2U2.2

                           -------------------------------
                              k-Points For BZ Sampling
                           -------------------------------
                       MP grid size for SCF calculation is  4  6  4
                            with an offset of   0.125  0.083  0.125
                       Number of kpoints used =            52

                           -------------------------------
                               Symmetry and Constraints
                           -------------------------------

                      Cell is a supercell containing 4 primitive cells
                      Maximum deviation from symmetry =  0.00000         ANG

                      Number of symmetry operations   =           1
                      Number of ionic constraints     =          64
                      Point group of crystal =     1: C1, 1, 1
                      Space group of crystal =     6: Pm, P -2y

             Set iprint > 1 for details on symmetry rotations/translations

                         Centre of mass is NOT constrained
             Set iprint > 1 for details of linear ionic constraints

                         Number of cell constraints= 6
                         Cell constraints are:  0 0 0 0 0 0

                         External pressure/stress (GPa)
                          0.00000   0.00000   0.00000
                                    0.00000   0.00000
                                              0.00000
 
+---------------- MEMORY AND SCRATCH DISK ESTIMATES PER PROCESS --------------+
|                                                     Memory          Disk    |
| Baseline code, static data and system overhead      488.0 MB         0.0 MB |
| BLAS internal memory storage                          0.0 MB         0.0 MB |
| Model and support data                             1650.7 MB         0.0 MB |
| Electronic energy minimisation requirements         214.1 MB         0.0 MB |
| Force calculation requirements                       35.7 MB         0.0 MB |
|                                               ----------------------------- |
| Approx. total storage required per process         2352.8 MB         0.0 MB |
|                                                                             |
| Requirements will fluctuate during execution and may exceed these estimates |
+-----------------------------------------------------------------------------+
Calculating approximate eigenstates for fixed initial Hamiltonian
Cut-off for approx. calculation is   89.988 eV
Improving approx. states at cut-off of  450.000 eV
Resetting cut-off to  900.000 eV
Calculating total energy with cut-off of  900.000 eV.
------------------------------------------------------------------------ <-- SCF
SCF loop      Energy           Fermi           Energy gain       Timer   <-- SCF
                               energy          per atom          (sec)   <-- SCF
------------------------------------------------------------------------ <-- SCF
Initial  -3.15053968E+004  0.00000000E+000                        62.61  <-- SCF
      1  -3.13986393E+004  2.82426969E+000  -3.33617333E+000     103.48  <-- SCF
      2  -3.13987260E+004  2.82401168E+000   2.70858449E-003     136.86  <-- SCF
      3  -3.14297494E+004  3.31486900E+000   9.69484264E-001     175.02  <-- SCF
      4  -3.14354145E+004  3.41552200E+000   1.77032681E-001     219.96  <-- SCF
      5  -3.14318931E+004  3.73492580E+000  -1.10042063E-001     257.25  <-- SCF
      6  -3.14329342E+004  3.79441107E+000   3.25330728E-002     295.02  <-- SCF
      7  -3.14325542E+004  3.85771400E+000  -1.18745076E-002     334.88  <-- SCF
      8  -3.14334850E+004  3.88711263E+000   2.90852480E-002     372.62  <-- SCF
      9  -3.14334519E+004  3.85672606E+000  -1.03347832E-003     410.25  <-- SCF
     10  -3.14334856E+004  3.83952330E+000   1.05294130E-003     449.60  <-- SCF
     11  -3.14335019E+004  3.84269330E+000   5.10194291E-004     487.18  <-- SCF
     12  -3.14335065E+004  3.83926290E+000   1.42282020E-004     525.16  <-- SCF
     13  -3.14335065E+004  3.84292521E+000   2.09495391E-006     564.85  <-- SCF
     14  -3.14335065E+004  3.84252452E+000   3.81770340E-007     599.19  <-- SCF
     15  -3.14335065E+004  3.84231658E+000   6.85633211E-008     628.53  <-- SCF
     16  -3.14335065E+004  3.84229187E+000   3.68541627E-009     655.94  <-- SCF
     17  -3.14335065E+004  3.84226645E+000  -3.24825525E-010     683.35  <-- SCF
------------------------------------------------------------------------ <-- SCF
 
Final energy, E             =  -31433.49758727     eV
Final free energy (E-TS)    =  -31433.50653409     eV
(energies not corrected for finite basis set)
 
NB est. 0K energy (E-0.5TS)      =  -31433.50206068     eV
 
 
+---------------- MEMORY AND SCRATCH DISK ESTIMATES PER PROCESS --------------+
|                                                     Memory          Disk    |
| Model and support data                             1010.6 MB         0.0 MB |
| Electronic energy minimisation requirements         214.1 MB         0.0 MB |
| Geometry minimisation requirements                  251.9 MB         0.0 MB |
|                                               ----------------------------- |
| Approx. total storage required per process         1476.6 MB         0.0 MB |
|                                                                             |
| Requirements will fluctuate during execution and may exceed these estimates |
+-----------------------------------------------------------------------------+
 

 ******************************** Constrained Forces ********************************
 *                                                                                  *
 *                           Cartesian components (eV/A)                            *
 * -------------------------------------------------------------------------------- *
 *                         x                    y                    z              *
 *                                                                                  *
 * P               1     -0.00000(cons'd)      0.00000(cons'd)     -0.14692         *
 * P               2      0.00000(cons'd)      0.00000(cons'd)      0.12410         *
 * P               3      0.00000(cons'd)     -0.00000(cons'd)     -0.03480         *
 * P               4     -0.00000(cons'd)      0.00000(cons'd)     -0.14692         *
 * P               5     -0.00000(cons'd)      0.00000(cons'd)     -0.01577         *
 * P               6      0.00000(cons'd)      0.00000(cons'd)     -0.14691         *
 * P               7      0.00000(cons'd)      0.00000(cons'd)      0.12410         *
 * P               8      0.00000(cons'd)      0.00000(cons'd)     -0.01577         *
 * P               9     -0.00000(cons'd)      0.00000(cons'd)      0.12410         *
 * P              10      0.00000(cons'd)     -0.00000(cons'd)     -0.03479         *
 * P              11      0.00000(cons'd)      0.00000(cons'd)     -0.14692         *
 * P              12     -0.00000(cons'd)     -0.00000(cons'd)     -0.03480         *
 * P              13      0.00000(cons'd)      0.00000(cons'd)     -0.01578         *
 * P              14     -0.00000(cons'd)      0.00000(cons'd)     -0.01577         *
 * P              15      0.00000(cons'd)     -0.00000(cons'd)     -0.03479         *
 * P              16      0.00000(cons'd)      0.00000(cons'd)      0.12410         *
 * In              1     -0.00000(cons'd)      0.00000(cons'd)      0.11479         *
 * In              2      0.00000(cons'd)      0.00000(cons'd)      0.01123         *
 * In              3      0.00000(cons'd)      0.00000(cons'd)      0.19382         *
 * In              4     -0.00000(cons'd)      0.00000(cons'd)      0.01122         *
 * In              5      0.00000(cons'd)      0.00000(cons'd)      0.19382         *
 * In              6      0.00000(cons'd)      0.00000(cons'd)      0.01122         *
 * In              7      0.00000(cons'd)      0.00000(cons'd)      0.01123         *
 * In              8      0.00000(cons'd)      0.00000(cons'd)      0.19382         *
 * In              9      0.00000(cons'd)      0.00000(cons'd)      0.11478         *
 * In             10      0.00000(cons'd)     -0.00000(cons'd)     -0.24644         *
 * In             11      0.00000(cons'd)      0.00000(cons'd)      0.11478         *
 * In             12      0.00000(cons'd)      0.00000(cons'd)      0.19382         *
 * In             13     -0.00000(cons'd)     -0.00000(cons'd)     -0.24645         *
 * In             14     -0.00000(cons'd)      0.00000(cons'd)      0.11478         *
 * In             15     -0.00000(cons'd)      0.00000(cons'd)     -0.24645         *
 * In             16      0.00000(cons'd)      0.00000(cons'd)     -0.24644         *
 *                                                                                  *
 ************************************************************************************
 EXP precond LBFGS => estimated nearest neighbor distance :  2.496       A
 EXP precond LBFGS => estimated cutoff distance :  4.993       A

 ************************************** Forces **************************************
 *                                                                                  *
 *                           Cartesian components (eV/A)                            *
 * -------------------------------------------------------------------------------- *
 *                         x                    y                    z              *
 *                                                                                  *
 * P               1     -0.00001(cons'd)      0.04826(cons'd)     -0.14692         *
 * P               2      0.00001(cons'd)      0.26490(cons'd)      0.12410         *
 * P               3     -0.00001(cons'd)     -0.76586(cons'd)     -0.03480         *
 * P               4     -0.00001(cons'd)      0.04826(cons'd)     -0.14692         *
 * P               5     -0.00000(cons'd)      0.07996(cons'd)     -0.01577         *
 * P               6      0.00000(cons'd)      0.04826(cons'd)     -0.14691         *
 * P               7      0.00001(cons'd)      0.26490(cons'd)      0.12410         *
 * P               8      0.00001(cons'd)      0.07996(cons'd)     -0.01577         *
 * P               9     -0.00000(cons'd)      0.26490(cons'd)      0.12410         *
 * P              10      0.00000(cons'd)     -0.76586(cons'd)     -0.03479         *
 * P              11      0.00000(cons'd)      0.04826(cons'd)     -0.14692         *
 * P              12     -0.00001(cons'd)     -0.76586(cons'd)     -0.03480         *
 * P              13      0.00001(cons'd)      0.07997(cons'd)     -0.01578         *
 * P              14     -0.00000(cons'd)      0.07997(cons'd)     -0.01577         *
 * P              15      0.00000(cons'd)     -0.76586(cons'd)     -0.03479         *
 * P              16     -0.00000(cons'd)      0.26490(cons'd)      0.12410         *
 * In              1      0.00001(cons'd)     -0.06336(cons'd)      0.11479         *
 * In              2     -0.00001(cons'd)      0.00457(cons'd)      0.01123         *
 * In              3     -0.00000(cons'd)      0.05972(cons'd)      0.19382         *
 * In              4      0.00000(cons'd)      0.00457(cons'd)      0.01122         *
 * In              5      0.00001(cons'd)      0.05972(cons'd)      0.19382         *
 * In              6      0.00000(cons'd)      0.00457(cons'd)      0.01122         *
 * In              7     -0.00001(cons'd)      0.00457(cons'd)      0.01123         *
 * In              8     -0.00000(cons'd)      0.05971(cons'd)      0.19382         *
 * In              9     -0.00000(cons'd)     -0.06336(cons'd)      0.11478         *
 * In             10     -0.00001(cons'd)      0.37180(cons'd)     -0.24644         *
 * In             11     -0.00000(cons'd)     -0.06335(cons'd)      0.11478         *
 * In             12      0.00001(cons'd)      0.05971(cons'd)      0.19382         *
 * In             13      0.00000(cons'd)      0.37180(cons'd)     -0.24645         *
 * In             14      0.00001(cons'd)     -0.06335(cons'd)      0.11478         *
 * In             15      0.00000(cons'd)      0.37180(cons'd)     -0.24645         *
 * In             16     -0.00001(cons'd)      0.37180(cons'd)     -0.24644         *
 *                                                                                  *
 ************************************************************************************
 doing test perturbation to get energy scale for EXP preconditioner

                           -------------------------------
                                     Cell Contents
                           -------------------------------

            xxxxxxxxxxxxxxxxxxxxxxxxxxxxxxxxxxxxxxxxxxxxxxxxxxxxxxxxxxxxxxxxx
            x  Element         Atom        Fractional coordinates of atoms  x
            x                 Number           u          v          w      x
            x---------------------------------------------------------------x
            x  P                 1         0.501850   0.620630   0.379627   x
            x  P                 2         0.250979   0.953418   0.141841   x
            x  P                 3         0.501850   0.459339   0.845578   x
            x  P                 4         0.501850   0.119331   0.379627   x
            x  P                 5         0.752517   0.288694   0.614583   x
            x  P                 6         0.000000   0.119331   0.379627   x
            x  P                 7         0.250979   0.452335   0.141841   x
            x  P                 8         0.250979   0.288694   0.614583   x
            x  P                 9         0.752517   0.452335   0.141841   x
            x  P                10         0.000000   0.960138   0.845578   x
            x  P                11         0.000000   0.620630   0.379627   x
            x  P                12         0.501850   0.960138   0.845578   x
            x  P                13         0.250979   0.789777   0.614583   x
            x  P                14         0.752517   0.789777   0.614583   x
            x  P                15         0.000000   0.459339   0.845578   x
            x  P                16         0.752517   0.953418   0.141841   x
            x  In                1         0.250979   0.660931   0.263201   x
            x  In                2         0.501850   0.328570   0.499385   x
            x  In                3         0.752517   0.998300   0.735333   x
            x  In                4         0.000000   0.328570   0.499385   x
            x  In                5         0.250979   0.998300   0.735333   x
            x  In                6         0.000000   0.829653   0.499385   x
            x  In                7         0.501850   0.829653   0.499385   x
            x  In                8         0.752517   0.497501   0.735333   x
            x  In                9         0.752517   0.660931   0.263201   x
            x  In               10         0.501850   0.491519   0.028644   x
            x  In               11         0.752517   0.159632   0.263201   x
            x  In               12         0.250979   0.497501   0.735333   x
            x  In               13         0.000000   0.491519   0.028644   x
            x  In               14         0.250979   0.159632   0.263201   x
            x  In               15         0.000000   0.992602   0.028644   x
            x  In               16         0.501850   0.992602   0.028644   x
            xxxxxxxxxxxxxxxxxxxxxxxxxxxxxxxxxxxxxxxxxxxxxxxxxxxxxxxxxxxxxxxxx


------------------------------------------------------------------------ <-- SCF
SCF loop      Energy           Fermi           Energy gain       Timer   <-- SCF
                               energy          per atom          (sec)   <-- SCF
------------------------------------------------------------------------ <-- SCF
Initial  -3.14319774E+004  0.00000000E+000                       727.00  <-- SCF
      1  -3.14332843E+004  3.82925469E+000   4.08416031E-002     764.10  <-- SCF
      2  -3.14334721E+004  3.82913596E+000   5.86806550E-003     810.42  <-- SCF
      3  -3.14334730E+004  3.82818021E+000   2.82432718E-005     849.65  <-- SCF
      4  -3.14334742E+004  3.82843372E+000   3.90884081E-005     889.69  <-- SCF
      5  -3.14334745E+004  3.82859945E+000   8.28137629E-006     933.89  <-- SCF
      6  -3.14334745E+004  3.82852766E+000   1.47530127E-006     973.40  <-- SCF
      7  -3.14334745E+004  3.82842889E+000   1.12162060E-007    1007.32  <-- SCF
      8  -3.14334745E+004  3.82838500E+000   1.41877215E-008    1037.89  <-- SCF
      9  -3.14334745E+004  3.82836818E+000   5.68057971E-010    1065.33  <-- SCF
     10  -3.14334745E+004  3.82834902E+000   1.99148982E-011    1092.70  <-- SCF
     11  -3.14334745E+004  3.82834007E+000   1.73240280E-010    1120.15  <-- SCF
------------------------------------------------------------------------ <-- SCF
 
Final energy, E             =  -31433.46750921     eV
Final free energy (E-TS)    =  -31433.47454249     eV
(energies not corrected for finite basis set)
 
NB est. 0K energy (E-0.5TS)      =  -31433.47102585     eV
 

 ************************************** Forces **************************************
 *                                                                                  *
 *                           Cartesian components (eV/A)                            *
 * -------------------------------------------------------------------------------- *
 *                         x                    y                    z              *
 *                                                                                  *
 * P               1     -0.02594(cons'd)      0.03357(cons'd)     -0.15421         *
 * P               2      0.00799(cons'd)      0.17963(cons'd)      0.05866         *
 * P               3     -0.02978(cons'd)     -0.86193(cons'd)     -0.38883         *
 * P               4     -0.02544(cons'd)      0.16365(cons'd)     -0.20962         *
 * P               5     -0.16115(cons'd)      0.15903(cons'd)      0.00983         *
 * P               6      0.17482(cons'd)      0.16462(cons'd)     -0.12681         *
 * P               7      0.00750(cons'd)      0.27426(cons'd)      0.12839         *
 * P               8      0.00790(cons'd)      0.15656(cons'd)     -0.09271         *
 * P               9     -0.16013(cons'd)      0.28141(cons'd)      0.23290         *
 * P              10      0.20429(cons'd)     -0.86864(cons'd)     -0.26884         *
 * P              11      0.17466(cons'd)      0.03441(cons'd)     -0.07132         *
 * P              12     -0.02953(cons'd)     -0.86840(cons'd)     -0.37088         *
 * P              13      0.00798(cons'd)      0.04814(cons'd)     -0.03985         *
 * P              14     -0.16103(cons'd)      0.05001(cons'd)      0.06308         *
 * P              15      0.20423(cons'd)     -0.86223(cons'd)     -0.28694         *
 * P              16     -0.15940(cons'd)      0.18684(cons'd)      0.16307         *
 * In              1      0.00236(cons'd)     -0.07891(cons'd)      0.12654         *
 * In              2     -0.01647(cons'd)      0.00666(cons'd)      0.00330         *
 * In              3     -0.15914(cons'd)     -0.00559(cons'd)      0.15270         *
 * In              4      0.15454(cons'd)      0.00657(cons'd)     -0.07253         *
 * In              5     -0.00048(cons'd)     -0.00676(cons'd)      0.24365         *
 * In              6      0.15439(cons'd)     -0.07842(cons'd)      0.00168         *
 * In              7     -0.01644(cons'd)     -0.07847(cons'd)      0.07754         *
 * In              8     -0.15920(cons'd)      0.06594(cons'd)      0.09599         *
 * In              9     -0.13522(cons'd)     -0.08025(cons'd)      0.04473         *
 * In             10     -0.01816(cons'd)      0.47031(cons'd)      0.11333         *
 * In             11     -0.13512(cons'd)      0.02486(cons'd)      0.08962         *
 * In             12     -0.00047(cons'd)      0.06484(cons'd)      0.18693         *
 * In             13      0.15412(cons'd)      0.46716(cons'd)      0.03097         *
 * In             14      0.00233(cons'd)      0.02640(cons'd)      0.17146         *
 * In             15      0.15414(cons'd)      0.46075(cons'd)      0.00289         *
 * In             16     -0.01814(cons'd)      0.46395(cons'd)      0.08529         *
 *                                                                                  *
 ************************************************************************************
 EXP precond LBFGS => estimated parameter mu :  3.446       eV/A**2
 LBFGS: finished iteration     0 with enthalpy= -3.14335065E+004 eV
  
 +-----------+-----------------+-----------------+------------+-----+ <-- LBFGS
 | Parameter |      value      |    tolerance    |    units   | OK? | <-- LBFGS
 +-----------+-----------------+-----------------+------------+-----+ <-- LBFGS
 |  dE/ion   |   0.000000E+000 |   2.000000E-005 |         eV | No  | <-- LBFGS
 |  |F|max   |   9.460433E-001 |   1.000000E-003 |       eV/A | No  | <-- LBFGS
 |  |dR|max  |   2.071839E-015 |   1.000000E-003 |          A | No  | <-- LBFGS
 +-----------+-----------------+-----------------+------------+-----+ <-- LBFGS
  

================================================================================
 Starting LBFGS iteration          1 ...
================================================================================
  
 +------------+-------------+-------------+-----------------+ <-- min LBFGS
 |    Step    |   lambda    |   F.delta'  |    enthalpy     | <-- min LBFGS
 +------------+-------------+-------------+-----------------+ <-- min LBFGS
 |  previous  |    0.000000 |    0.299215 |   -31433.506534 | <-- min LBFGS
 +------------+-------------+-------------+-----------------+ <-- min LBFGS
  

--------------------------------------------------------------------------------
 LBFGS: starting iteration         1 with trial guess (lambda=  1.000000)
--------------------------------------------------------------------------------

                           -------------------------------
                                     Cell Contents
                           -------------------------------

            xxxxxxxxxxxxxxxxxxxxxxxxxxxxxxxxxxxxxxxxxxxxxxxxxxxxxxxxxxxxxxxxx
            x  Element         Atom        Fractional coordinates of atoms  x
            x                 Number           u          v          w      x
            x---------------------------------------------------------------x
            x  P                 1         0.500000   0.619074   0.378230   x
            x  P                 2         0.250000  -0.049033   0.141650   x
            x  P                 3         0.500000   0.457956   0.843684   x
            x  P                 4         0.500000   0.119074   0.378231   x
            x  P                 5         0.750000   0.287680   0.613369   x
            x  P                 6         0.000000   0.119074   0.378231   x
            x  P                 7         0.250000   0.450967   0.141650   x
            x  P                 8         0.250000   0.287680   0.613369   x
            x  P                 9         0.750000   0.450967   0.141651   x
            x  P                10         0.000000  -0.042044   0.843684   x
            x  P                11         0.000000   0.619074   0.378231   x
            x  P                12         0.500000  -0.042044   0.843684   x
            x  P                13         0.250000  -0.212320   0.613369   x
            x  P                14         0.750000  -0.212320   0.613369   x
            x  P                15         0.000000   0.457956   0.843684   x
            x  P                16         0.750000  -0.049033   0.141650   x
            x  In                1         0.250000   0.659025   0.262817   x
            x  In                2         0.500000   0.327522   0.498269   x
            x  In                3         0.750000  -0.004267   0.734548   x
            x  In                4        -0.000000   0.327522   0.498269   x
            x  In                5         0.250000  -0.004267   0.734548   x
            x  In                6         0.000000  -0.172478   0.498269   x
            x  In                7         0.500000  -0.172478   0.498269   x
            x  In                8         0.750000   0.495733   0.734548   x
            x  In                9         0.750000   0.659025   0.262817   x
            x  In               10         0.500000   0.490504   0.027432   x
            x  In               11         0.750000   0.159025   0.262817   x
            x  In               12         0.250000   0.495733   0.734548   x
            x  In               13        -0.000000   0.490504   0.027432   x
            x  In               14         0.250000   0.159025   0.262817   x
            x  In               15        -0.000000  -0.009496   0.027432   x
            x  In               16         0.500000  -0.009496   0.027432   x
            xxxxxxxxxxxxxxxxxxxxxxxxxxxxxxxxxxxxxxxxxxxxxxxxxxxxxxxxxxxxxxxxx


------------------------------------------------------------------------ <-- SCF
SCF loop      Energy           Fermi           Energy gain       Timer   <-- SCF
                               energy          per atom          (sec)   <-- SCF
------------------------------------------------------------------------ <-- SCF
Initial  -3.14318034E+004  0.00000000E+000                      1147.11  <-- SCF
      1  -3.14333439E+004  3.83130688E+000   4.81411877E-002    1184.74  <-- SCF
      2  -3.14335200E+004  3.83119296E+000   5.50087847E-003    1230.83  <-- SCF
      3  -3.14335207E+004  3.83104405E+000   2.45149300E-005    1269.80  <-- SCF
      4  -3.14335219E+004  3.82949102E+000   3.55751386E-005    1309.64  <-- SCF
      5  -3.14335222E+004  3.82863523E+000   8.30038748E-006    1353.41  <-- SCF
      6  -3.14335222E+004  3.82816039E+000   1.43211475E-006    1393.05  <-- SCF
      7  -3.14335222E+004  3.82798122E+000   7.30927036E-008    1427.52  <-- SCF
      8  -3.14335222E+004  3.82780729E+000  -3.66434128E-009    1459.00  <-- SCF
      9  -3.14335222E+004  3.82774600E+000  -1.24033080E-009    1486.45  <-- SCF
------------------------------------------------------------------------ <-- SCF
 
Final energy, E             =  -31433.51544511     eV
Final free energy (E-TS)    =  -31433.52220082     eV
(energies not corrected for finite basis set)
 
NB est. 0K energy (E-0.5TS)      =  -31433.51882296     eV
 

 ******************************** Constrained Forces ********************************
 *                                                                                  *
 *                           Cartesian components (eV/A)                            *
 * -------------------------------------------------------------------------------- *
 *                         x                    y                    z              *
 *                                                                                  *
 * P               1      0.00000(cons'd)      0.00000(cons'd)     -0.05595         *
 * P               2      0.00000(cons'd)      0.00000(cons'd)      0.04011         *
 * P               3      0.00000(cons'd)      0.00000(cons'd)     -0.12454         *
 * P               4      0.00000(cons'd)      0.00000(cons'd)     -0.05597         *
 * P               5      0.00000(cons'd)      0.00000(cons'd)      0.00417         *
 * P               6      0.00000(cons'd)      0.00000(cons'd)     -0.05593         *
 * P               7      0.00000(cons'd)      0.00000(cons'd)      0.04015         *
 * P               8      0.00000(cons'd)      0.00000(cons'd)      0.00413         *
 * P               9      0.00000(cons'd)      0.00000(cons'd)      0.04021         *
 * P              10      0.00000(cons'd)     -0.00000(cons'd)     -0.12445         *
 * P              11      0.00000(cons'd)      0.00000(cons'd)     -0.05591         *
 * P              12      0.00000(cons'd)     -0.00000(cons'd)     -0.12450         *
 * P              13      0.00000(cons'd)      0.00000(cons'd)      0.00420         *
 * P              14      0.00000(cons'd)      0.00000(cons'd)      0.00424         *
 * P              15      0.00000(cons'd)      0.00000(cons'd)     -0.12449         *
 * P              16      0.00000(cons'd)      0.00000(cons'd)      0.04016         *
 * In              1      0.00000(cons'd)      0.00000(cons'd)      0.04586         *
 * In              2      0.00000(cons'd)      0.00000(cons'd)     -0.00266         *
 * In              3      0.00000(cons'd)      0.00000(cons'd)      0.07074         *
 * In              4      0.00000(cons'd)      0.00000(cons'd)     -0.00271         *
 * In              5      0.00000(cons'd)      0.00000(cons'd)      0.07075         *
 * In              6     -0.00000(cons'd)      0.00000(cons'd)     -0.00278         *
 * In              7      0.00000(cons'd)      0.00000(cons'd)     -0.00274         *
 * In              8      0.00000(cons'd)      0.00000(cons'd)      0.07077         *
 * In              9      0.00000(cons'd)      0.00000(cons'd)      0.04577         *
 * In             10      0.00000(cons'd)      0.00000(cons'd)      0.02226         *
 * In             11      0.00000(cons'd)      0.00000(cons'd)      0.04580         *
 * In             12      0.00000(cons'd)      0.00000(cons'd)      0.07081         *
 * In             13      0.00000(cons'd)      0.00000(cons'd)      0.02215         *
 * In             14      0.00000(cons'd)      0.00000(cons'd)      0.04588         *
 * In             15      0.00000(cons'd)      0.00000(cons'd)      0.02219         *
 * In             16      0.00000(cons'd)      0.00000(cons'd)      0.02229         *
 *                                                                                  *
 ************************************************************************************
  
 +------------+-------------+-------------+-----------------+ <-- min LBFGS
 |    Step    |   lambda    |   F.delta'  |    enthalpy     | <-- min LBFGS
 +------------+-------------+-------------+-----------------+ <-- min LBFGS
 |  previous  |    0.000000 |    0.299215 |   -31433.506534 | <-- min LBFGS
 | trial step |    1.000000 |    0.048201 |   -31433.522201 | <-- min LBFGS
 +------------+-------------+-------------+-----------------+ <-- min LBFGS
  
 LBFGS: finished iteration     1 with enthalpy= -3.14335222E+004 eV
  
 +-----------+-----------------+-----------------+------------+-----+ <-- LBFGS
 | Parameter |      value      |    tolerance    |    units   | OK? | <-- LBFGS
 +-----------+-----------------+-----------------+------------+-----+ <-- LBFGS
 |  dE/ion   |   4.895852E-004 |   2.000000E-005 |         eV | No  | <-- LBFGS
 |  |F|max   |   1.245391E-001 |   1.000000E-003 |       eV/A | No  | <-- LBFGS
 |  |dR|max  |   1.342488E-002 |   1.000000E-003 |          A | No  | <-- LBFGS
 +-----------+-----------------+-----------------+------------+-----+ <-- LBFGS
  

================================================================================
 Starting LBFGS iteration          2 ...
================================================================================
  
 +------------+-------------+-------------+-----------------+ <-- min LBFGS
 |    Step    |   lambda    |   F.delta'  |    enthalpy     | <-- min LBFGS
 +------------+-------------+-------------+-----------------+ <-- min LBFGS
 |  previous  |    0.000000 |    0.127814 |   -31433.522201 | <-- min LBFGS
 +------------+-------------+-------------+-----------------+ <-- min LBFGS
  

--------------------------------------------------------------------------------
 LBFGS: starting iteration         2 with trial guess (lambda=  1.000000)
--------------------------------------------------------------------------------

                           -------------------------------
                                     Cell Contents
                           -------------------------------

            xxxxxxxxxxxxxxxxxxxxxxxxxxxxxxxxxxxxxxxxxxxxxxxxxxxxxxxxxxxxxxxxx
            x  Element         Atom        Fractional coordinates of atoms  x
            x                 Number           u          v          w      x
            x---------------------------------------------------------------x
            x  P                 1         0.500000   0.619160   0.377981   x
            x  P                 2         0.250000  -0.049164   0.142031   x
            x  P                 3         0.500000   0.458187   0.843017   x
            x  P                 4         0.500000   0.119160   0.377981   x
            x  P                 5         0.750000   0.287676   0.613381   x
            x  P                 6         0.000000   0.119160   0.377981   x
            x  P                 7         0.250000   0.450836   0.142031   x
            x  P                 8         0.250000   0.287676   0.613381   x
            x  P                 9         0.750000   0.450836   0.142031   x
            x  P                10         0.000000  -0.041814   0.843017   x
            x  P                11         0.000000   0.619160   0.377981   x
            x  P                12         0.500000  -0.041814   0.843017   x
            x  P                13         0.250000  -0.212324   0.613381   x
            x  P                14         0.750000  -0.212324   0.613381   x
            x  P                15         0.000000   0.458186   0.843017   x
            x  P                16         0.750000  -0.049164   0.142031   x
            x  In                1         0.250000   0.658894   0.263195   x
            x  In                2         0.500000   0.327531   0.498244   x
            x  In                3         0.750000  -0.004371   0.734848   x
            x  In                4        -0.000000   0.327531   0.498244   x
            x  In                5         0.250000  -0.004371   0.734848   x
            x  In                6        -0.000000  -0.172469   0.498244   x
            x  In                7         0.500000  -0.172469   0.498244   x
            x  In                8         0.750000   0.495629   0.734848   x
            x  In                9         0.750000   0.658894   0.263195   x
            x  In               10         0.500000   0.490549   0.027304   x
            x  In               11         0.750000   0.158894   0.263195   x
            x  In               12         0.250000   0.495629   0.734849   x
            x  In               13        -0.000000   0.490549   0.027303   x
            x  In               14         0.250000   0.158894   0.263195   x
            x  In               15        -0.000000  -0.009451   0.027303   x
            x  In               16         0.500000  -0.009451   0.027304   x
            xxxxxxxxxxxxxxxxxxxxxxxxxxxxxxxxxxxxxxxxxxxxxxxxxxxxxxxxxxxxxxxxx


------------------------------------------------------------------------ <-- SCF
SCF loop      Energy           Fermi           Energy gain       Timer   <-- SCF
                               energy          per atom          (sec)   <-- SCF
------------------------------------------------------------------------ <-- SCF
Initial  -3.14334495E+004  0.00000000E+000                      1513.34  <-- SCF
      1  -3.14335228E+004  3.82929070E+000   2.29317247E-003    1551.25  <-- SCF
      2  -3.14335255E+004  3.82928729E+000   8.20293031E-005    1597.19  <-- SCF
      3  -3.14335253E+004  3.82873814E+000  -5.18864151E-006    1636.59  <-- SCF
      4  -3.14335253E+004  3.82784306E+000  -1.32197937E-006    1676.47  <-- SCF
      5  -3.14335252E+004  3.82740251E+000  -8.94940725E-008    1711.93  <-- SCF
      6  -3.14335252E+004  3.82709266E+000  -7.50838068E-008    1745.28  <-- SCF
      7  -3.14335252E+004  3.82693395E+000  -1.61041921E-008    1776.42  <-- SCF
      8  -3.14335252E+004  3.82685103E+000  -8.17670919E-010    1803.78  <-- SCF
      9  -3.14335252E+004  3.82684146E+000   4.81051134E-010    1830.73  <-- SCF
------------------------------------------------------------------------ <-- SCF
 
Final energy, E             =  -31433.51859337     eV
Final free energy (E-TS)    =  -31433.52524602     eV
(energies not corrected for finite basis set)
 
NB est. 0K energy (E-0.5TS)      =  -31433.52191970     eV
 

 ******************************** Constrained Forces ********************************
 *                                                                                  *
 *                           Cartesian components (eV/A)                            *
 * -------------------------------------------------------------------------------- *
 *                         x                    y                    z              *
 *                                                                                  *
 * P               1      0.00000(cons'd)      0.00000(cons'd)     -0.00135         *
 * P               2      0.00000(cons'd)      0.00000(cons'd)     -0.00773         *
 * P               3     -0.00000(cons'd)      0.00000(cons'd)      0.02261         *
 * P               4      0.00000(cons'd)      0.00000(cons'd)     -0.00133         *
 * P               5      0.00000(cons'd)      0.00000(cons'd)      0.00444         *
 * P               6      0.00000(cons'd)      0.00000(cons'd)     -0.00136         *
 * P               7      0.00000(cons'd)      0.00000(cons'd)     -0.00776         *
 * P               8     -0.00000(cons'd)      0.00000(cons'd)      0.00447         *
 * P               9      0.00000(cons'd)      0.00000(cons'd)     -0.00780         *
 * P              10      0.00000(cons'd)     -0.00000(cons'd)      0.02248         *
 * P              11     -0.00000(cons'd)      0.00000(cons'd)     -0.00137         *
 * P              12     -0.00000(cons'd)     -0.00000(cons'd)      0.02258         *
 * P              13     -0.00000(cons'd)      0.00000(cons'd)      0.00442         *
 * P              14      0.00000(cons'd)      0.00000(cons'd)      0.00439         *
 * P              15      0.00000(cons'd)      0.00000(cons'd)      0.02250         *
 * P              16      0.00000(cons'd)      0.00000(cons'd)     -0.00777         *
 * In              1      0.00000(cons'd)      0.00000(cons'd)      0.00262         *
 * In              2      0.00000(cons'd)      0.00000(cons'd)      0.00038         *
 * In              3      0.00000(cons'd)      0.00000(cons'd)     -0.01104         *
 * In              4      0.00000(cons'd)      0.00000(cons'd)      0.00041         *
 * In              5     -0.00000(cons'd)      0.00000(cons'd)     -0.01104         *
 * In              6      0.00000(cons'd)      0.00000(cons'd)      0.00045         *
 * In              7      0.00000(cons'd)      0.00000(cons'd)      0.00043         *
 * In              8      0.00000(cons'd)      0.00000(cons'd)     -0.01106         *
 * In              9      0.00000(cons'd)      0.00000(cons'd)      0.00267         *
 * In             10      0.00000(cons'd)      0.00000(cons'd)     -0.00991         *
 * In             11      0.00000(cons'd)      0.00000(cons'd)      0.00266         *
 * In             12      0.00000(cons'd)      0.00000(cons'd)     -0.01108         *
 * In             13      0.00000(cons'd)     -0.00000(cons'd)     -0.00978         *
 * In             14      0.00000(cons'd)      0.00000(cons'd)      0.00261         *
 * In             15      0.00000(cons'd)      0.00000(cons'd)     -0.00981         *
 * In             16      0.00000(cons'd)     -0.00000(cons'd)     -0.00993         *
 *                                                                                  *
 ************************************************************************************
  
 +------------+-------------+-------------+-----------------+ <-- min LBFGS
 |    Step    |   lambda    |   F.delta'  |    enthalpy     | <-- min LBFGS
 +------------+-------------+-------------+-----------------+ <-- min LBFGS
 |  previous  |    0.000000 |    0.127814 |   -31433.522201 | <-- min LBFGS
 | trial step |    1.000000 |   -0.016103 |   -31433.525246 | <-- min LBFGS
 +------------+-------------+-------------+-----------------+ <-- min LBFGS
  
 LBFGS: finished iteration     2 with enthalpy= -3.14335252E+004 eV
  
 +-----------+-----------------+-----------------+------------+-----+ <-- LBFGS
 | Parameter |      value      |    tolerance    |    units   | OK? | <-- LBFGS
 +-----------+-----------------+-----------------+------------+-----+ <-- LBFGS
 |  dE/ion   |   9.516256E-005 |   2.000000E-005 |         eV | No  | <-- LBFGS
 |  |F|max   |   2.260614E-002 |   1.000000E-003 |       eV/A | No  | <-- LBFGS
 |  |dR|max  |   7.872851E-003 |   1.000000E-003 |          A | No  | <-- LBFGS
 +-----------+-----------------+-----------------+------------+-----+ <-- LBFGS
  

================================================================================
 Starting LBFGS iteration          3 ...
================================================================================
  
 +------------+-------------+-------------+-----------------+ <-- min LBFGS
 |    Step    |   lambda    |   F.delta'  |    enthalpy     | <-- min LBFGS
 +------------+-------------+-------------+-----------------+ <-- min LBFGS
 |  previous  |    0.000000 |    0.020688 |   -31433.525246 | <-- min LBFGS
 +------------+-------------+-------------+-----------------+ <-- min LBFGS
  

--------------------------------------------------------------------------------
 LBFGS: starting iteration         3 with trial guess (lambda=  1.000000)
--------------------------------------------------------------------------------

                           -------------------------------
                                     Cell Contents
                           -------------------------------

            xxxxxxxxxxxxxxxxxxxxxxxxxxxxxxxxxxxxxxxxxxxxxxxxxxxxxxxxxxxxxxxxx
            x  Element         Atom        Fractional coordinates of atoms  x
            x                 Number           u          v          w      x
            x---------------------------------------------------------------x
            x  P                 1         0.500000   0.619161   0.377980   x
            x  P                 2         0.250000  -0.049145   0.141976   x
            x  P                 3         0.500000   0.458156   0.843104   x
            x  P                 4         0.500000   0.119161   0.377980   x
            x  P                 5         0.750000   0.287669   0.613402   x
            x  P                 6         0.000000   0.119161   0.377981   x
            x  P                 7         0.250000   0.450855   0.141976   x
            x  P                 8         0.250000   0.287669   0.613402   x
            x  P                 9         0.750000   0.450855   0.141976   x
            x  P                10         0.000000  -0.041844   0.843104   x
            x  P                11         0.000000   0.619161   0.377981   x
            x  P                12         0.500000  -0.041844   0.843104   x
            x  P                13         0.250000  -0.212332   0.613402   x
            x  P                14         0.750000  -0.212332   0.613402   x
            x  P                15         0.000000   0.458156   0.843104   x
            x  P                16         0.750000  -0.049145   0.141976   x
            x  In                1         0.250000   0.658902   0.263172   x
            x  In                2         0.500000   0.327529   0.498248   x
            x  In                3         0.750000  -0.004362   0.734825   x
            x  In                4        -0.000000   0.327530   0.498248   x
            x  In                5         0.250000  -0.004362   0.734825   x
            x  In                6        -0.000000  -0.172470   0.498248   x
            x  In                7         0.500000  -0.172471   0.498248   x
            x  In                8         0.750000   0.495638   0.734825   x
            x  In                9         0.750000   0.658902   0.263172   x
            x  In               10         0.500000   0.490553   0.027293   x
            x  In               11         0.750000   0.158902   0.263172   x
            x  In               12         0.250000   0.495638   0.734825   x
            x  In               13        -0.000000   0.490553   0.027292   x
            x  In               14         0.250000   0.158902   0.263173   x
            x  In               15        -0.000000  -0.009447   0.027293   x
            x  In               16         0.500000  -0.009447   0.027293   x
            xxxxxxxxxxxxxxxxxxxxxxxxxxxxxxxxxxxxxxxxxxxxxxxxxxxxxxxxxxxxxxxxx


------------------------------------------------------------------------ <-- SCF
SCF loop      Energy           Fermi           Energy gain       Timer   <-- SCF
                               energy          per atom          (sec)   <-- SCF
------------------------------------------------------------------------ <-- SCF
Initial  -3.14335242E+004  0.00000000E+000                      1858.50  <-- SCF
      1  -3.14335253E+004  3.82648483E+000   3.29540936E-005    1896.31  <-- SCF
      2  -3.14335253E+004  3.82648477E+000   4.90497563E-007    1941.12  <-- SCF
      3  -3.14335253E+004  3.82658795E+000  -1.19400449E-007    1974.39  <-- SCF
      4  -3.14335253E+004  3.82673843E+000  -3.73348271E-008    2006.64  <-- SCF
      5  -3.14335253E+004  3.82681743E+000  -4.27918959E-009    2034.94  <-- SCF
      6  -3.14335253E+004  3.82687205E+000  -2.13824136E-009    2062.97  <-- SCF
------------------------------------------------------------------------ <-- SCF
 
Final energy, E             =  -31433.51869761     eV
Final free energy (E-TS)    =  -31433.52531426     eV
(energies not corrected for finite basis set)
 
NB est. 0K energy (E-0.5TS)      =  -31433.52200593     eV
 

 ******************************** Constrained Forces ********************************
 *                                                                                  *
 *                           Cartesian components (eV/A)                            *
 * -------------------------------------------------------------------------------- *
 *                         x                    y                    z              *
 *                                                                                  *
 * P               1      0.00000(cons'd)      0.00000(cons'd)     -0.00227         *
 * P               2      0.00000(cons'd)      0.00000(cons'd)     -0.00171         *
 * P               3     -0.00000(cons'd)     -0.00000(cons'd)      0.00027         *
 * P               4      0.00000(cons'd)      0.00000(cons'd)     -0.00226         *
 * P               5      0.00000(cons'd)      0.00000(cons'd)      0.00164         *
 * P               6     -0.00000(cons'd)      0.00000(cons'd)     -0.00227         *
 * P               7     -0.00000(cons'd)      0.00000(cons'd)     -0.00172         *
 * P               8      0.00000(cons'd)      0.00000(cons'd)      0.00166         *
 * P               9      0.00000(cons'd)      0.00000(cons'd)     -0.00174         *
 * P              10      0.00000(cons'd)     -0.00000(cons'd)      0.00029         *
 * P              11     -0.00000(cons'd)      0.00000(cons'd)     -0.00228         *
 * P              12      0.00000(cons'd)     -0.00000(cons'd)      0.00026         *
 * P              13      0.00000(cons'd)      0.00000(cons'd)      0.00163         *
 * P              14      0.00000(cons'd)      0.00000(cons'd)      0.00162         *
 * P              15      0.00000(cons'd)      0.00000(cons'd)      0.00030         *
 * P              16      0.00000(cons'd)      0.00000(cons'd)     -0.00173         *
 * In              1      0.00000(cons'd)      0.00000(cons'd)      0.00195         *
 * In              2      0.00000(cons'd)     -0.00000(cons'd)     -0.00025         *
 * In              3      0.00000(cons'd)      0.00000(cons'd)     -0.00051         *
 * In              4      0.00000(cons'd)      0.00000(cons'd)     -0.00023         *
 * In              5      0.00000(cons'd)      0.00000(cons'd)     -0.00051         *
 * In              6      0.00000(cons'd)      0.00000(cons'd)     -0.00021         *
 * In              7      0.00000(cons'd)      0.00000(cons'd)     -0.00022         *
 * In              8      0.00000(cons'd)      0.00000(cons'd)     -0.00052         *
 * In              9      0.00000(cons'd)      0.00000(cons'd)      0.00197         *
 * In             10      0.00000(cons'd)      0.00000(cons'd)      0.00088         *
 * In             11      0.00000(cons'd)      0.00000(cons'd)      0.00197         *
 * In             12      0.00000(cons'd)      0.00000(cons'd)     -0.00053         *
 * In             13      0.00000(cons'd)      0.00000(cons'd)      0.00087         *
 * In             14      0.00000(cons'd)      0.00000(cons'd)      0.00194         *
 * In             15      0.00000(cons'd)      0.00000(cons'd)      0.00085         *
 * In             16      0.00000(cons'd)      0.00000(cons'd)      0.00087         *
 *                                                                                  *
 ************************************************************************************
  
 +------------+-------------+-------------+-----------------+ <-- min LBFGS
 |    Step    |   lambda    |   F.delta'  |    enthalpy     | <-- min LBFGS
 +------------+-------------+-------------+-----------------+ <-- min LBFGS
 |  previous  |    0.000000 |    0.020688 |   -31433.525246 | <-- min LBFGS
 | trial step |    1.000000 |    0.000839 |   -31433.525314 | <-- min LBFGS
 +------------+-------------+-------------+-----------------+ <-- min LBFGS
  
 LBFGS: finished iteration     3 with enthalpy= -3.14335253E+004 eV
  
 +-----------+-----------------+-----------------+------------+-----+ <-- LBFGS
 | Parameter |      value      |    tolerance    |    units   | OK? | <-- LBFGS
 +-----------+-----------------+-----------------+------------+-----+ <-- LBFGS
 |  dE/ion   |   2.132370E-006 |   2.000000E-005 |         eV | Yes | <-- LBFGS
 |  |F|max   |   2.282602E-003 |   1.000000E-003 |       eV/A | No  | <-- LBFGS
 |  |dR|max  |   1.027871E-003 |   1.000000E-003 |          A | No  | <-- LBFGS
 +-----------+-----------------+-----------------+------------+-----+ <-- LBFGS
  

================================================================================
 Starting LBFGS iteration          4 ...
================================================================================
  
 +------------+-------------+-------------+-----------------+ <-- min LBFGS
 |    Step    |   lambda    |   F.delta'  |    enthalpy     | <-- min LBFGS
 +------------+-------------+-------------+-----------------+ <-- min LBFGS
 |  previous  |    0.000000 |    0.002974 |   -31433.525314 | <-- min LBFGS
 +------------+-------------+-------------+-----------------+ <-- min LBFGS
  

--------------------------------------------------------------------------------
 LBFGS: starting iteration         4 with trial guess (lambda=  1.000000)
--------------------------------------------------------------------------------

                           -------------------------------
                                     Cell Contents
                           -------------------------------

            xxxxxxxxxxxxxxxxxxxxxxxxxxxxxxxxxxxxxxxxxxxxxxxxxxxxxxxxxxxxxxxxx
            x  Element         Atom        Fractional coordinates of atoms  x
            x                 Number           u          v          w      x
            x---------------------------------------------------------------x
            x  P                 1         0.500000   0.619164   0.377971   x
            x  P                 2         0.250000  -0.049143   0.141968   x
            x  P                 3         0.500000   0.458155   0.843108   x
            x  P                 4         0.500000   0.119164   0.377971   x
            x  P                 5         0.750000   0.287666   0.613409   x
            x  P                 6         0.000000   0.119164   0.377971   x
            x  P                 7         0.250000   0.450857   0.141968   x
            x  P                 8         0.250000   0.287666   0.613409   x
            x  P                 9         0.750000   0.450857   0.141968   x
            x  P                10         0.000000  -0.041845   0.843108   x
            x  P                11         0.000000   0.619164   0.377971   x
            x  P                12         0.500000  -0.041845   0.843108   x
            x  P                13         0.250000  -0.212334   0.613409   x
            x  P                14         0.750000  -0.212334   0.613409   x
            x  P                15         0.000000   0.458155   0.843108   x
            x  P                16         0.750000  -0.049143   0.141968   x
            x  In                1         0.250000   0.658901   0.263176   x
            x  In                2         0.500000   0.327530   0.498247   x
            x  In                3         0.750000  -0.004363   0.734826   x
            x  In                4         0.000000   0.327530   0.498247   x
            x  In                5         0.250000  -0.004363   0.734826   x
            x  In                6        -0.000000  -0.172470   0.498247   x
            x  In                7         0.500000  -0.172470   0.498247   x
            x  In                8         0.750000   0.495637   0.734826   x
            x  In                9         0.750000   0.658901   0.263176   x
            x  In               10         0.500000   0.490552   0.027295   x
            x  In               11         0.750000   0.158901   0.263176   x
            x  In               12         0.250000   0.495637   0.734826   x
            x  In               13        -0.000000   0.490552   0.027295   x
            x  In               14         0.250000   0.158901   0.263176   x
            x  In               15        -0.000000  -0.009448   0.027295   x
            x  In               16         0.500000  -0.009448   0.027295   x
            xxxxxxxxxxxxxxxxxxxxxxxxxxxxxxxxxxxxxxxxxxxxxxxxxxxxxxxxxxxxxxxxx


------------------------------------------------------------------------ <-- SCF
SCF loop      Energy           Fermi           Energy gain       Timer   <-- SCF
                               energy          per atom          (sec)   <-- SCF
------------------------------------------------------------------------ <-- SCF
Initial  -3.14335199E+004  0.00000000E+000                      2089.90  <-- SCF
      1  -3.14335253E+004  3.82689783E+000   1.67960975E-004    2127.77  <-- SCF
      2  -3.14335253E+004  3.82689783E+000   6.24844434E-009    2156.92  <-- SCF
      3  -3.14335253E+004  3.82692273E+000  -2.41105613E-010    2183.65  <-- SCF
      4  -3.14335253E+004  3.82695753E+000  -4.45475006E-010    2210.41  <-- SCF
------------------------------------------------------------------------ <-- SCF
 
Final energy, E             =  -31433.51869895     eV
Final free energy (E-TS)    =  -31433.52531517     eV
(energies not corrected for finite basis set)
 
NB est. 0K energy (E-0.5TS)      =  -31433.52200706     eV
 

 ******************************** Constrained Forces ********************************
 *                                                                                  *
 *                           Cartesian components (eV/A)                            *
 * -------------------------------------------------------------------------------- *
 *                         x                    y                    z              *
 *                                                                                  *
 * P               1      0.00000(cons'd)      0.00000(cons'd)     -0.00061         *
 * P               2      0.00000(cons'd)      0.00000(cons'd)     -0.00036         *
 * P               3      0.00000(cons'd)     -0.00000(cons'd)      0.00018         *
 * P               4      0.00000(cons'd)      0.00000(cons'd)     -0.00060         *
 * P               5      0.00000(cons'd)      0.00000(cons'd)      0.00078         *
 * P               6     -0.00000(cons'd)      0.00000(cons'd)     -0.00061         *
 * P               7     -0.00000(cons'd)      0.00000(cons'd)     -0.00036         *
 * P               8      0.00000(cons'd)      0.00000(cons'd)      0.00078         *
 * P               9      0.00000(cons'd)      0.00000(cons'd)     -0.00037         *
 * P              10      0.00000(cons'd)     -0.00000(cons'd)      0.00017         *
 * P              11     -0.00000(cons'd)      0.00000(cons'd)     -0.00061         *
 * P              12     -0.00000(cons'd)      0.00000(cons'd)      0.00017         *
 * P              13      0.00000(cons'd)      0.00000(cons'd)      0.00077         *
 * P              14      0.00000(cons'd)      0.00000(cons'd)      0.00077         *
 * P              15      0.00000(cons'd)     -0.00000(cons'd)      0.00018         *
 * P              16      0.00000(cons'd)      0.00000(cons'd)     -0.00036         *
 * In              1     -0.00000(cons'd)      0.00000(cons'd)     -0.00007         *
 * In              2      0.00000(cons'd)      0.00000(cons'd)      0.00064         *
 * In              3      0.00000(cons'd)      0.00000(cons'd)     -0.00072         *
 * In              4      0.00000(cons'd)      0.00000(cons'd)      0.00064         *
 * In              5      0.00000(cons'd)      0.00000(cons'd)     -0.00072         *
 * In              6      0.00000(cons'd)      0.00000(cons'd)      0.00064         *
 * In              7      0.00000(cons'd)     -0.00000(cons'd)      0.00064         *
 * In              8      0.00000(cons'd)      0.00000(cons'd)     -0.00072         *
 * In              9     -0.00000(cons'd)      0.00000(cons'd)     -0.00007         *
 * In             10      0.00000(cons'd)     -0.00000(cons'd)      0.00016         *
 * In             11      0.00000(cons'd)      0.00000(cons'd)     -0.00007         *
 * In             12      0.00000(cons'd)      0.00000(cons'd)     -0.00072         *
 * In             13      0.00000(cons'd)     -0.00000(cons'd)      0.00018         *
 * In             14      0.00000(cons'd)      0.00000(cons'd)     -0.00007         *
 * In             15      0.00000(cons'd)      0.00000(cons'd)      0.00018         *
 * In             16      0.00000(cons'd)      0.00000(cons'd)      0.00016         *
 *                                                                                  *
 ************************************************************************************
  
 +------------+-------------+-------------+-----------------+ <-- min LBFGS
 |    Step    |   lambda    |   F.delta'  |    enthalpy     | <-- min LBFGS
 +------------+-------------+-------------+-----------------+ <-- min LBFGS
 |  previous  |    0.000000 |    0.002974 |   -31433.525314 | <-- min LBFGS
 | trial step |    1.000000 |    0.000706 |   -31433.525315 | <-- min LBFGS
[...]
 * In             12      0.00000(cons'd)      0.00000(cons'd)     -0.00072         *
 * In             13      0.00000(cons'd)     -0.00000(cons'd)      0.00018         *
 * In             14      0.00000(cons'd)      0.00000(cons'd)     -0.00007         *
 * In             15      0.00000(cons'd)      0.00000(cons'd)      0.00018         *
 * In             16      0.00000(cons'd)      0.00000(cons'd)      0.00016         *
 *                                                                                  *
 ************************************************************************************

 Pseudo atomic calculation performed for P 3s2 3p3

 Converged in 23 iterations to a total energy of -208.0292 eV

 Pseudo atomic calculation performed for In 4d10 5s2 5p1

 Converged in 42 iterations to a total energy of -1747.4500 eV
Charge spilling parameter for spin component 1 = 0.20%

            Orbital Populations       
     Ion    Atom   Orbital             Charge
  -------------------------------------------
      P     1      S                    1.719
      P     1      Px                   1.291
      P     1      Py                   1.345
      P     1      Pz                   1.329
      P     2      S                    1.727
      P     2      Px                   1.285
      P     2      Py                   1.338
      P     2      Pz                   1.343
      P     3      S                    1.696
      P     3      Px                   1.288
      P     3      Py                   1.486
      P     3      Pz                   1.228
      P     4      S                    1.719
      P     4      Px                   1.291
      P     4      Py                   1.345
      P     4      Pz                   1.329
      P     5      S                    1.722
      P     5      Px                   1.287
      P     5      Py                   1.340
      P     5      Pz                   1.329
      P     6      S                    1.719
      P     6      Px                   1.291
      P     6      Py                   1.345
      P     6      Pz                   1.329
      P     7      S                    1.727
      P     7      Px                   1.285
      P     7      Py                   1.338
      P     7      Pz                   1.343
      P     8      S                    1.722
      P     8      Px                   1.287
      P     8      Py                   1.340
      P     8      Pz                   1.329
      P     9      S                    1.727
      P     9      Px                   1.285
      P     9      Py                   1.338
      P     9      Pz                   1.343
      P    10      S                    1.696
      P    10      Px                   1.288
      P    10      Py                   1.486
      P    10      Pz                   1.228
      P    11      S                    1.719
      P    11      Px                   1.292
      P    11      Py                   1.345
      P    11      Pz                   1.329
      P    12      S                    1.696
      P    12      Px                   1.288
      P    12      Py                   1.486
      P    12      Pz                   1.228
      P    13      S                    1.722
      P    13      Px                   1.287
      P    13      Py                   1.340
      P    13      Pz                   1.329
      P    14      S                    1.722
      P    14      Px                   1.287
      P    14      Py                   1.340
      P    14      Pz                   1.329
      P    15      S                    1.696
      P    15      Px                   1.288
      P    15      Py                   1.486
      P    15      Pz                   1.228
      P    16      S                    1.727
      P    16      Px                   1.285
      P    16      Py                   1.338
      P    16      Pz                   1.343
     In     1      Dzz                  1.999
     In     1      Dzy                  1.997
     In     1      Dzx                  1.996
     In     1      Dxx-yy               1.996
     In     1      Dxy                  1.999
     In     1      S                    1.421
     In     1      Px                   0.516
     In     1      Py                   0.475
     In     1      Pz                   0.458
     In     1      S                   -0.559
     In     2      Dzz                  1.999
     In     2      Dzy                  1.997
     In     2      Dzx                  1.996
     In     2      Dxx-yy               1.996
     In     2      Dxy                  1.999
     In     2      S                    1.421
     In     2      Px                   0.519
     In     2      Py                   0.478
     In     2      Pz                   0.466
     In     2      S                   -0.580
     In     3      Dzz                  1.999
     In     3      Dzy                  1.997
     In     3      Dzx                  1.995
     In     3      Dxx-yy               1.995
     In     3      Dxy                  1.999
     In     3      S                    1.455
     In     3      Px                   0.495
     In     3      Py                   0.497
     In     3      Pz                   0.473
     In     3      S                   -0.599
     In     4      Dzz                  1.999
     In     4      Dzy                  1.997
     In     4      Dzx                  1.996
     In     4      Dxx-yy               1.996
     In     4      Dxy                  1.999
     In     4      S                    1.420
     In     4      Px                   0.519
     In     4      Py                   0.478
     In     4      Pz                   0.466
     In     4      S                   -0.580
     In     5      Dzz                  1.999
     In     5      Dzy                  1.997
     In     5      Dzx                  1.995
     In     5      Dxx-yy               1.995
     In     5      Dxy                  1.999
     In     5      S                    1.455
     In     5      Px                   0.495
     In     5      Py                   0.497
     In     5      Pz                   0.473
     In     5      S                   -0.599
     In     6      Dzz                  1.999
     In     6      Dzy                  1.997
     In     6      Dzx                  1.996
     In     6      Dxx-yy               1.996
     In     6      Dxy                  1.999
     In     6      S                    1.421
     In     6      Px                   0.519
     In     6      Py                   0.478
     In     6      Pz                   0.466
     In     6      S                   -0.580
     In     7      Dzz                  1.999
     In     7      Dzy                  1.997
     In     7      Dzx                  1.996
     In     7      Dxx-yy               1.996
     In     7      Dxy                  1.999
     In     7      S                    1.421
     In     7      Px                   0.519
     In     7      Py                   0.478
     In     7      Pz                   0.466
     In     7      S                   -0.580
     In     8      Dzz                  1.999
     In     8      Dzy                  1.997
     In     8      Dzx                  1.995
     In     8      Dxx-yy               1.995
     In     8      Dxy                  1.999
     In     8      S                    1.455
     In     8      Px                   0.495
     In     8      Py                   0.497
     In     8      Pz                   0.473
     In     8      S                   -0.599
     In     9      Dzz                  1.999
     In     9      Dzy                  1.997
     In     9      Dzx                  1.996
     In     9      Dxx-yy               1.996
     In     9      Dxy                  1.999
     In     9      S                    1.421
     In     9      Px                   0.516
     In     9      Py                   0.475
     In     9      Pz                   0.458
     In     9      S                   -0.559
     In    10      Dzz                  1.995
     In    10      Dzy                  1.998
     In    10      Dzx                  1.996
     In    10      Dxx-yy               1.997
     In    10      Dxy                  1.999
     In    10      S                    1.501
     In    10      Px                   0.473
     In    10      Py                   0.459
     In    10      Pz                   0.521
     In    10      S                   -0.587
     In    11      Dzz                  1.999
     In    11      Dzy                  1.997
     In    11      Dzx                  1.996
     In    11      Dxx-yy               1.996
     In    11      Dxy                  1.999
     In    11      S                    1.421
     In    11      Px                   0.516
     In    11      Py                   0.475
     In    11      Pz                   0.458
     In    11      S                   -0.559
     In    12      Dzz                  1.999
     In    12      Dzy                  1.997
     In    12      Dzx                  1.995
     In    12      Dxx-yy               1.995
     In    12      Dxy                  1.999
     In    12      S                    1.455
     In    12      Px                   0.495
     In    12      Py                   0.497
     In    12      Pz                   0.473
     In    12      S                   -0.599
     In    13      Dzz                  1.995
     In    13      Dzy                  1.998
     In    13      Dzx                  1.996
     In    13      Dxx-yy               1.997
     In    13      Dxy                  1.999
     In    13      S                    1.501
     In    13      Px                   0.473
     In    13      Py                   0.459
     In    13      Pz                   0.521
     In    13      S                   -0.587
     In    14      Dzz                  1.999
     In    14      Dzy                  1.997
     In    14      Dzx                  1.996
     In    14      Dxx-yy               1.996
     In    14      Dxy                  1.999
     In    14      S                    1.421
     In    14      Px                   0.516
     In    14      Py                   0.475
     In    14      Pz                   0.458
     In    14      S                   -0.559
     In    15      Dzz                  1.995
     In    15      Dzy                  1.998
     In    15      Dzx                  1.996
     In    15      Dxx-yy               1.997
     In    15      Dxy                  1.999
     In    15      S                    1.501
     In    15      Px                   0.473
     In    15      Py                   0.459
     In    15      Pz                   0.521
     In    15      S                   -0.587
     In    16      Dzz                  1.995
     In    16      Dzy                  1.998
     In    16      Dzx                  1.996
     In    16      Dxx-yy               1.997
     In    16      Dxy                  1.999
     In    16      S                    1.501
     In    16      Px                   0.473
     In    16      Py                   0.459
     In    16      Pz                   0.521
     In    16      S                   -0.587
  -------------------------------------------
                           Total:     288.000
  -------------------------------------------

     Atomic Populations (Mulliken)
     -----------------------------
Species          Ion     s       p       d       f      Total   Charge (e)
==========================================================================
  P               1     1.719   3.966   0.000   0.000   5.685    -0.685
  P               2     1.727   3.965   0.000   0.000   5.692    -0.692
  P               3     1.696   4.002   0.000   0.000   5.698    -0.698
  P               4     1.719   3.966   0.000   0.000   5.685    -0.685
  P               5     1.722   3.956   0.000   0.000   5.678    -0.678
  P               6     1.719   3.966   0.000   0.000   5.685    -0.685
  P               7     1.727   3.965   0.000   0.000   5.692    -0.692
  P               8     1.722   3.956   0.000   0.000   5.678    -0.678
  P               9     1.727   3.965   0.000   0.000   5.692    -0.692
  P              10     1.696   4.002   0.000   0.000   5.698    -0.698
  P              11     1.719   3.966   0.000   0.000   5.685    -0.685
  P              12     1.696   4.002   0.000   0.000   5.698    -0.698
  P              13     1.722   3.956   0.000   0.000   5.678    -0.678
  P              14     1.722   3.956   0.000   0.000   5.678    -0.678
  P              15     1.696   4.002   0.000   0.000   5.698    -0.698
  P              16     1.727   3.965   0.000   0.000   5.692    -0.692
  In              1     0.861   1.450   9.987   0.000  12.298     0.702
  In              2     0.841   1.463   9.987   0.000  12.291     0.709
  In              3     0.856   1.465   9.986   0.000  12.307     0.693
  In              4     0.841   1.463   9.987   0.000  12.291     0.709
  In              5     0.856   1.465   9.986   0.000  12.307     0.693
  In              6     0.841   1.463   9.987   0.000  12.291     0.709
  In              7     0.841   1.463   9.987   0.000  12.291     0.709
  In              8     0.856   1.465   9.986   0.000  12.307     0.693
  In              9     0.861   1.450   9.987   0.000  12.298     0.702
  In             10     0.913   1.453   9.984   0.000  12.351     0.649
  In             11     0.861   1.450   9.987   0.000  12.298     0.702
  In             12     0.856   1.465   9.986   0.000  12.307     0.693
  In             13     0.913   1.453   9.984   0.000  12.351     0.649
  In             14     0.861   1.450   9.987   0.000  12.298     0.702
  In             15     0.913   1.453   9.984   0.000  12.351     0.649
  In             16     0.913   1.453   9.984   0.000  12.351     0.649
==========================================================================

                 Bond                   Population      Length (A)
======================================================================
              P 15 -- In 13                  1.17        2.31726
              P 10 -- In 15                  1.17        2.31726
              P 12 -- In 16                  1.17        2.31726
              P 3  -- In 10                  1.17        2.31726
              P 15 -- In 12                  0.82        2.44671
              P 15 -- In 8                   0.82        2.44671
              P 3  -- In 8                   0.82        2.44672
              P 10 -- In 5                   0.82        2.44672
              P 10 -- In 3                   0.82        2.44672
              P 12 -- In 3                   0.82        2.44672
              P 3  -- In 12                  0.82        2.44672
              P 12 -- In 5                   0.82        2.44672
              P 16 -- In 16                  0.70        2.48695
              P 9  -- In 10                  0.70        2.48695
              P 2  -- In 15                  0.70        2.48695
              P 2  -- In 16                  0.70        2.48695
              P 16 -- In 15                  0.70        2.48695
              P 7  -- In 10                  0.70        2.48695
              P 7  -- In 13                  0.70        2.48695
              P 9  -- In 13                  0.70        2.48695
              P 11 -- In 1                   0.76        2.48773
              P 6  -- In 14                  0.76        2.48773
              P 4  -- In 11                  0.76        2.48773
              P 1  -- In 1                   0.76        2.48773
              P 4  -- In 14                  0.76        2.48773
              P 1  -- In 9                   0.76        2.48773
              P 6  -- In 11                  0.76        2.48773
              P 11 -- In 9                   0.76        2.48773
              P 5  -- In 2                   0.74        2.49010
              P 8  -- In 4                   0.74        2.49010
              P 5  -- In 4                   0.74        2.49010
              P 8  -- In 2                   0.74        2.49010
              P 14 -- In 7                   0.74        2.49010
              P 13 -- In 6                   0.74        2.49010
              P 14 -- In 6                   0.74        2.49010
              P 13 -- In 7                   0.74        2.49010
              P 6  -- In 6                   0.64        2.52355
              P 11 -- In 6                   0.65        2.52355
              P 11 -- In 4                   0.64        2.52355
              P 4  -- In 7                   0.64        2.52355
              P 1  -- In 7                   0.65        2.52355
              P 1  -- In 2                   0.64        2.52355
              P 6  -- In 4                   0.65        2.52355
              P 4  -- In 2                   0.65        2.52355
              P 9  -- In 9                   0.63        2.52975
              P 16 -- In 9                   0.63        2.52975
              P 16 -- In 11                  0.63        2.52975
              P 9  -- In 11                  0.63        2.52975
              P 7  -- In 1                   0.63        2.52975
              P 2  -- In 1                   0.63        2.52975
              P 2  -- In 14                  0.63        2.52975
              P 7  -- In 14                  0.63        2.52975
              P 14 -- In 3                   0.63        2.53114
              P 14 -- In 8                   0.61        2.53114
              P 5  -- In 8                   0.63        2.53114
              P 13 -- In 5                   0.63        2.53114
              P 5  -- In 3                   0.61        2.53114
              P 13 -- In 12                  0.61        2.53114
              P 8  -- In 12                  0.63        2.53114
              P 8  -- In 5                   0.61        2.53114
======================================================================


     Hirshfeld Analysis
     ------------------
Species   Ion     Hirshfeld Charge (e)
======================================
  P        1                -0.24
  P        2                -0.23
  P        3                -0.28
  P        4                -0.24
  P        5                -0.23
  P        6                -0.24
  P        7                -0.23
  P        8                -0.23
  P        9                -0.23
  P       10                -0.28
  P       11                -0.24
  P       12                -0.28
  P       13                -0.23
  P       14                -0.23
  P       15                -0.28
  P       16                -0.23
  In       1                 0.24
  In       2                 0.24
  In       3                 0.25
  In       4                 0.24
  In       5                 0.25
  In       6                 0.24
  In       7                 0.24
  In       8                 0.25
  In       9                 0.24
  In      10                 0.26
  In      11                 0.24
  In      12                 0.25
  In      13                 0.26
  In      14                 0.24
  In      15                 0.26
  In      16                 0.26
======================================

 
 A BibTeX formatted list of references used in this run has been written to 
 StackingFaultStructs_(0_0_1)_(1_1_0)_6.bib
 
Initialisation time =     22.44 s
Calculation time    =   2231.09 s
Finalisation time   =      2.46 s
Total time          =   2255.99 s
Peak Memory Use     = 3403784 kB
 
Overall parallel efficiency rating: Mediocre (53%)
 
Data was distributed by:-
G-vector (4-way); efficiency rating: Mediocre (54%)
k-point (52-way); efficiency rating: Excellent (94%)
