 +-------------------------------------------------+
 |                                                 |
 |      CCC   AA    SSS  TTTTT  EEEEE  PPPP        |
 |     C     A  A  S       T    E      P   P       |
 |     C     AAAA   SS     T    EEE    PPPP        |
 |     C     A  A     S    T    E      P           |
 |      CCC  A  A  SSS     T    EEEEE  P           |
 |                                                 |
 +-------------------------------------------------+
 |                                                 |
 | Welcome to Academic Release CASTEP version 24.1 |
 | Ab Initio Total Energy Program                  |
 |                                                 |
 | Authors:                                        |
 | M. Segall, M. Probert, C. Pickard, P. Hasnip,   |
 | S. Clark, K. Refson, J. R. Yates,               |
 | A. Bartok-Partay, M. Payne                      |
 |                                                 |
 | Contributors:                                   |
 | P. Lindan, P. Haynes, J. White, V. Milman,      |
 | N. Govind, M. Gibson, P. Tulip, V. Cocula,      |
 | B. Montanari, D. Quigley, M. Glover,            |
 | L. Bernasconi, A. Perlov, M. Plummer,           |
 | E. McNellis, J. Meyer, J. Gale, D. Jochym       |
 | J. Aarons, B. Walker, R. Gillen, D. Jones       |
 | T. Green, I. J. Bush, C. J. Armstrong,          |
 | E. J. Higgins, E. L. Brown, M. S. McFly,        |
 | J. Wilkins, B-C. Shih, P. J. P. Byrne,          |
 | R. J. Maurer, J. C. Womack, J. Dziedzic,        |
 | L. LeBlanc, T. K. Stenczel, J. Kermode,         |
 | S. Sturniolo, B. Shi, B. Durham, M. Evans,      |
 | M. J. Smith, A. Tamerus, Z. Hawkhead,           |
 | V. Ravindran, T. Hollins, S. A. Joyce,          |
 | R. T. Strong, A. M. Reilly, S. J. Donaldson     |
 |                                                 |
 | Copyright (c) 2000 - 2023                       |
 |                                                 |
 |     Distributed under license from Cambridge    |
 |     Enterprise for academic use only.           |
 |                                                 |
 | Please cite                                     |
 |                                                 |
 |     "First principles methods using CASTEP"     |
 |                                                 |
 |         Zeitschrift fuer Kristallographie       |
 |           220(5-6) pp. 567-570 (2005)           |
 |                                                 |
 | S. J. Clark, M. D. Segall, C. J. Pickard,       |
 | P. J. Hasnip, M. J. Probert, K. Refson,         |
 | M. C. Payne                                     |
 |                                                 |
 |       in all publications arising from          |
 |              your use of CASTEP                 |
 |                                                 |
 +-------------------------------------------------+
 |                                                 |
 |              http://www.castep.org              |
 |                                                 |
 +-------------------------------------------------+



 Compiled for  GNU 11.2.0 on 04-04-2024 18:39:17
 from code version 6355fd106 Castep241_branch Thu Mar 7 17:56:19 2024 +0000
 Compiler: GNU Fortran 11.2.0; Optimisation: FAST
 Comms   : MPI VERSION : CRAY MPICH version 8.1.23.14 (ANL base 3.4a2)
 MATHLIBS: default (LAPACK version 3.10.1)
 FFT Lib : fftw3 version commercial-fftw-3.3.10-sse2-avx-avx2-avx2_128
 Fundamental constants values: CODATA 2018

 Run started: Wed, 30 Jul 2025 16:12:06 +0100

 Atomic calculation performed for P: 1s2 2s2 2p6 3s2 3p3

 Converged in 47 iterations to an ae energy of -9309.074 eV

   ============================================================                
   | Pseudopotential Report - Date of generation 30-07-2025   |                
   ------------------------------------------------------------                
   | Element: P Ionic charge:  5.00 Level of theory: RSCAN    |                
   | Atomic Solver: Koelling-Harmon                           |                
   |                                                          |                
   |               Reference Electronic Structure             |                
   |         Orbital         Occupation         Energy        |                
   |            3s              2.000           -0.535        |                
   |            3p              3.000           -0.209        |                
   |                                                          |                
   |                 Pseudopotential Definition               |                
   |        Beta     l      e      Rc     scheme   norm       |                
   |          1      0   -0.535   1.807     qc      0         |                
   |          2      0    0.250   1.807     qc      0         |                
   |          3      1   -0.209   1.807     qc      0         |                
   |          4      1    0.250   1.807     qc      0         |                
   |          5      2    0.000   1.807     qc      0         |                
   |          6      2    0.250   1.807     qc      0         |                
   |         loc     3    0.000   1.807     pn      0         |                
   |                                                          |                
   | Augmentation charge Rinner = 1.263                       |                
   | Partial core correction Rc = 1.263                       |                
   ------------------------------------------------------------                
   | "3|1.8|4|4|5|30:31:32"                                   |                
   ------------------------------------------------------------                
   |      Author: Chris J. Pickard, Cambridge University      |                
   ============================================================                
 Warning: otfg_output_psp cannot write out meta-GGA pseudopotentials presently.

 Atomic calculation performed for In:
 1s2 2s2 2p6 3s2 3p6 3d10 4s2 4p6 4d10 5s2 5p1

 Converged in 84 iterations to an ae energy of -160093.328 eV

   ============================================================                
   | Pseudopotential Report - Date of generation 30-07-2025   |                
   ------------------------------------------------------------                
   | Element: In Ionic charge: 13.00 Level of theory: RSCAN   |                
   | Atomic Solver: Koelling-Harmon                           |                
   |                                                          |                
   |               Reference Electronic Structure             |                
   |         Orbital         Occupation         Energy        |                
   |            4d             10.000           -0.711        |                
   |            5s              2.000           -0.313        |                
   |            5p              1.000           -0.095        |                
   |                                                          |                
   |                 Pseudopotential Definition               |                
   |        Beta     l      e      Rc     scheme   norm       |                
   |          1      0   -0.313   2.501     qc      0         |                
   |          2      0    0.250   2.501     qc      0         |                
   |          3      1   -0.095   2.501     qc      0         |                
   |          4      1    0.250   2.501     qc      0         |                
   |          5      2   -0.711   2.207     qc      0         |                
   |          6      2    0.250   2.207     qc      0         |                
   |         loc     3    0.000   2.501     pn      0         |                
   |                                                          |                
   | Augmentation charge Rinner = 1.504                       |                
   | Partial core correction Rc = 1.504                       |                
   ------------------------------------------------------------                
   | "3|2.5|2.5|1.5|7|8|9|50:51:42U2.2U2.2"                   |                
   ------------------------------------------------------------                
   |      Author: Chris J. Pickard, Cambridge University      |                
   ============================================================                
 Warning: otfg_output_psp cannot write out meta-GGA pseudopotentials presently.

 Pseudo atomic calculation performed for P 3s2 3p3

 Converged in 23 iterations to a total energy of -208.0292 eV

 Pseudo atomic calculation performed for In 4d10 5s2 5p1

 Converged in 42 iterations to a total energy of -1747.4501 eV
 Calculation parallelised over 108 processes.
 Data is distributed by G-vector(3-way) and k-point(36-way)
 Each process may use up to 16 threads.

 ************************************ Title ************************************
 

 ***************************** General Parameters ******************************
  
 output verbosity                               : normal  (1)
 write checkpoint data to                       : In_Vacancy_Migration_15->60_Singlepoints_2.check
 type of calculation                            : single point energy
 stress calculation                             : off
 density difference calculation                 : off
 electron localisation func (ELF) calculation   : off
 Hirshfeld analysis                             : on
 polarisation (Berry phase) analysis            : off
 molecular orbital projected DOS                : off
 deltaSCF calculation                           : off
 unlimited duration calculation
 timing information                             : on
 memory usage estimate                          : on
 write extra output files                       : on
 write final potential to formatted file        : off
 write final density to formatted file          : off
 write BibTeX reference list                    : on
 write OTFG pseudopotential files               : on
 write electrostatic potential file             : on
 write bands file                               : on
 checkpoint writing                             : off
  
 output         length unit                     : A
 output           mass unit                     : amu
 output           time unit                     : ps
 output         charge unit                     : e
 output           spin unit                     : hbar/2
 output         energy unit                     : eV
 output          force unit                     : eV/A
 output       velocity unit                     : A/ps
 output       pressure unit                     : GPa
 output     inv_length unit                     : 1/A
 output      frequency unit                     : cm-1
 output force constant unit                     : eV/A**2
 output         volume unit                     : A**3
 output   IR intensity unit                     : (D/A)**2/amu
 output         dipole unit                     : D
 output         efield unit                     : eV/A/e
 output        entropy unit                     : J/mol/K
 output    efield chi2 unit                     : pm/V
  
 wavefunctions paging                           : none
 random number generator seed                   :  161206711
 data distribution                              : optimal for this architecture
 optimization strategy                          : balance speed and memory

 *********************** Exchange-Correlation Parameters ***********************
  
 using functional                               : RSCAN
 relativistic treatment                         : Koelling-Harmon
 DFT+D: Semi-empirical dispersion correction    : off

 ************************* Pseudopotential Parameters **************************
  
 pseudopotential representation                 : reciprocal space
 <beta|phi> representation                      : reciprocal space
 spin-orbit coupling                            : off

 **************************** Basis Set Parameters *****************************
  
 plane wave basis set cut-off                   :   900.0000   eV
 size of standard grid                          :     2.0000
 size of   fine   gmax                          :    30.7390   1/A
 finite basis set correction                    : none

 **************************** Electronic Parameters ****************************
  
 number of  electrons                           :  563.0    
 net charge of system                           :  0.000    
 net spin   of system                           :  1.000    
 number of  up  spins                           :  282.0    
 number of down spins                           :  281.0    
 treating system as spin-polarized
 number of bands                                :        338

 ********************* Electronic Minimization Parameters **********************
  
 Method: Treating system as metallic with density mixing treatment of electrons,
         and number of  SD  steps               :          1
         and number of  CG  steps               :          4
  
 total energy / atom convergence tol.           : 0.1000E-07   eV
 eigen-energy convergence tolerance             : 0.2234E-08   eV
 max force / atom convergence tol.              : ignored
 convergence tolerance window                   :          3   cycles
 max. number of SCF cycles                      :        100
 number of fixed-spin iterations                :         10
 smearing scheme                                : Gaussian
 smearing width                                 : 0.2000       eV
 Fermi energy convergence tolerance             : 0.2721E-13   eV
 periodic dipole correction                     : NONE

 ************************** Density Mixing Parameters **************************
  
 density-mixing scheme                          : Pulay
 max. length of mixing history                  :         20
 charge density mixing amplitude                : 0.5000    
   spin density mixing amplitude                :  2.000    
 cut-off energy for mixing                      :  900.0       eV

 *********************** Population Analysis Parameters ************************
  
 Population analysis with cutoff                :  3.000       A
 Population analysis output                     : summary and pdos components

 *******************************************************************************
  

                           -------------------------------
                                      Unit Cell
                           -------------------------------
        Real Lattice(A)                      Reciprocal Lattice(1/A)
    11.8016820    -0.0000080    -0.0000080        0.532397442   0.000000361   0.000000361
    -0.0000080    11.8016820    -0.0000080        0.000000361   0.532397442   0.000000361
    -0.0000080    -0.0000080    11.8016820        0.000000361   0.000000361   0.532397442

                       Lattice parameters(A)       Cell Angles
                    a =     11.801682          alpha =   90.000078
                    b =     11.801682          beta  =   90.000078
                    c =     11.801682          gamma =   90.000078

                       Current cell volume =          1643.734705       A**3
                                   density =             2.768402   AMU/A**3
                                           =             4.597040     g/cm^3

                           -------------------------------
                                     Cell Contents
                           -------------------------------
                         Total number of ions in cell =   63
                      Total number of species in cell =    2
                        Max number of any one species =   32

            xxxxxxxxxxxxxxxxxxxxxxxxxxxxxxxxxxxxxxxxxxxxxxxxxxxxxxxxxxxx
            x  Element    Atom        Fractional coordinates of atoms  x
            x            Number           u          v          w      x
            x----------------------------------------------------------x
            x  P            1         0.136268   0.136268   0.390462   x 
            x  P            2         0.375447   0.127209   0.132734   x 
            x  P            3         0.127209   0.375447   0.132734   x 
            x  P            4         0.426765   0.426765   0.363736   x 
            x  P            5         0.128589   0.128589   0.875300   x 
            x  P            6         0.382678   0.137395   0.621552   x 
            x  P            7         0.137395   0.382678   0.621552   x 
            x  P            8         0.374754   0.374754   0.874757   x 
            x  P            9         0.127849   0.629317   0.372877   x 
            x  P           10         0.375517   0.632053   0.114156   x 
            x  P           11         0.126449   0.878982   0.125577   x 
            x  P           12         0.374056   0.874665   0.376963   x 
            x  P           13         0.117756   0.630520   0.882671   x 
            x  P           14         0.376437   0.613573   0.620671   x 
            x  P           15         0.123104   0.877156   0.624865   x 
            x  P           16         0.376507   0.882442   0.866571   x 
            x  P           17         0.629317   0.127849   0.372877   x 
            x  P           18         0.878982   0.126449   0.125577   x 
            x  P           19         0.632053   0.375517   0.114156   x 
            x  P           20         0.874665   0.374056   0.376963   x 
            x  P           21         0.630520   0.117756   0.882671   x 
            x  P           22         0.877156   0.123104   0.624865   x 
            x  P           23         0.613574   0.376437   0.620671   x 
            x  P           24         0.882442   0.376507   0.866571   x 
            x  P           25         0.586682   0.586682   0.384824   x 
            x  P           26         0.869185   0.623008   0.130618   x 
            x  P           27         0.623008   0.869185   0.130618   x 
            x  P           28         0.868746   0.868746   0.375320   x 
            x  P           29         0.625684   0.625684   0.868534   x 
            x  P           30         0.873714   0.622579   0.621050   x 
            x  P           31         0.622579   0.873714   0.621050   x 
            x  P           32         0.874265   0.874265   0.876931   x 
            x  In           1         0.001733   0.001733  -0.001824   x 
            x  In           2         0.244606   0.004824   0.259715   x 
            x  In           3         0.004824   0.244606   0.259715   x 
            x  In           4         0.252753   0.252753   0.004678   x 
            x  In           5         0.000022   0.000022   0.492972   x 
            x  In           6         0.250447   0.009851   0.741157   x 
            x  In           7         0.009851   0.250447   0.741157   x 
            x  In           8         0.314675   0.314675   0.513562   x 
            x  In           9        -0.002801   0.497616   0.007258   x 
            x  In          10         0.257295   0.509211   0.246572   x 
            x  In          11        -0.000190   0.751559   0.247870   x 
            x  In          12         0.251544   0.760013  -0.006611   x 
            x  In          13         0.004267   0.500875   0.496409   x 
            x  In          14         0.246547   0.510437   0.759021   x 
            x  In          15        -0.004025   0.750445   0.748084   x 
            x  In          16         0.253458   0.748148   0.507039   x 
            x  In          17         0.497616  -0.002801   0.007258   x 
            x  In          18         0.751559  -0.000190   0.247870   x 
            x  In          19         0.509211   0.257295   0.246572   x 
            x  In          20         0.760013   0.251544  -0.006611   x 
            x  In          21         0.500875   0.004267   0.496409   x 
            x  In          22         0.750445  -0.004025   0.748084   x 
            x  In          23         0.510437   0.246547   0.759021   x 
            x  In          24         0.748148   0.253458   0.507039   x 
            x  In          25         0.501480   0.501480  -0.005529   x 
            x  In          26         0.741208   0.497235   0.256795   x 
            x  In          27         0.497235   0.741208   0.256795   x 
            x  In          28         0.747348   0.747348  -0.000076   x 
            x  In          29         0.745770   0.495201   0.741590   x 
            x  In          30         0.495201   0.745770   0.741590   x 
            x  In          31         0.733930   0.733930   0.495949   x 
            xxxxxxxxxxxxxxxxxxxxxxxxxxxxxxxxxxxxxxxxxxxxxxxxxxxxxxxxxxxx


                         No user defined ionic velocities

                           -------------------------------
                                   Details of Species
                           -------------------------------

                               Mass of species in AMU
                                    P   30.9737600
                                    In  114.8180000

                          Electric Quadrupole Moment (Barn)
                                    P    1.0000000 No Isotope Defined
                                    In    0.7700000 Isotope115

                          Files used for pseudopotentials:
                                    P 3|1.8|4|4|5|30:31:32
                                    In 3|2.5|2.5|1.5|7|8|9|50:51:42U2.2U2.2

                           -------------------------------
                              k-Points For BZ Sampling
                           -------------------------------
                       MP grid size for SCF calculation is  4  4  4
                            with an offset of   0.125  0.125  0.125
                       Number of kpoints used =            36

                           -------------------------------
                               Symmetry and Constraints
                           -------------------------------

                      Maximum deviation from symmetry =  0.00000         ANG

                      Number of symmetry operations   =           1
                      Number of ionic constraints     =           3
                      Point group of crystal =     1: C1, 1, 1
                      Space group of crystal =     8: Cm, C -2y

             Set iprint > 1 for details on symmetry rotations/translations

                         Centre of mass is constrained
             Set iprint > 1 for details of linear ionic constraints

                         Number of cell constraints= 0
                         Cell constraints are:  1 2 3 4 5 6

                         External pressure/stress (GPa)
                          0.00000   0.00000   0.00000
                                    0.00000   0.00000
                                              0.00000
 
+---------------- MEMORY AND SCRATCH DISK ESTIMATES PER PROCESS --------------+
|                                                     Memory          Disk    |
| Baseline code, static data and system overhead      368.0 MB         0.0 MB |
| BLAS internal memory storage                          0.0 MB         0.0 MB |
| Model and support data                             4296.9 MB         0.0 MB |
| Electronic energy minimisation requirements        1299.4 MB         0.0 MB |
| Force calculation requirements                      127.4 MB         0.0 MB |
|                                               ----------------------------- |
| Approx. total storage required per process         5964.3 MB         0.0 MB |
|                                                                             |
| Requirements will fluctuate during execution and may exceed these estimates |
+-----------------------------------------------------------------------------+
Calculating approximate eigenstates for fixed initial Hamiltonian
Cut-off for approx. calculation is   89.988 eV
Improving approx. states at cut-off of  450.000 eV
Resetting cut-off to  900.000 eV
Calculating total energy with cut-off of  900.000 eV.
------------------------------------------------------------------------ <-- SCF
SCF loop      Energy           Fermi           Energy gain       Timer   <-- SCF
                               energy          per atom          (sec)   <-- SCF
------------------------------------------------------------------------ <-- SCF
Initial  -6.12904280E+004  0.00000000E+000                       424.48  <-- SCF
      1  -6.10532701E+004  2.05337270E+000  -3.76441027E+000     861.23  <-- SCF
      2  -6.10536315E+004  2.05328203E+000   5.73597286E-003    1167.67  <-- SCF
      3  -6.11172229E+004  2.36000749E+000   1.00938680E+000    1500.15  <-- SCF
      4  -6.11286584E+004  2.42538753E+000   1.81516084E-001    1983.58  <-- SCF
      5  -6.11351851E+004  2.51592077E+000   1.03598724E-001    2319.28  <-- SCF
      6  -6.11233727E+004  2.64906451E+000  -1.87497551E-001    2650.12  <-- SCF
      7  -6.11218509E+004  2.69196803E+000  -2.41569520E-002    2988.39  <-- SCF
      8  -6.11220919E+004  2.72558200E+000   3.82689209E-003    3333.65  <-- SCF
      9  -6.11228986E+004  2.74901517E+000   1.28043840E-002    3687.44  <-- SCF
     10  -6.11232286E+004  2.73518974E+000   5.23739282E-003    4030.08  <-- SCF
     11  -6.11232789E+004  2.72918816E+000   7.98137975E-004    4383.86  <-- SCF
     12  -6.11232960E+004  2.72628308E+000   2.71406022E-004    4731.95  <-- SCF
     13  -6.11233021E+004  2.72394005E+000   9.68492190E-005    5092.75  <-- SCF
     14  -6.11233028E+004  2.72286709E+000   1.17749066E-005    5458.59  <-- SCF
     15  -6.11233036E+004  2.72219923E+000   1.25301700E-005    5822.77  <-- SCF
     16  -6.11233039E+004  2.72219392E+000   4.81646499E-006    6159.62  <-- SCF
     17  -6.11233044E+004  2.72202466E+000   7.54363687E-006    6511.91  <-- SCF
     18  -6.11233046E+004  2.72188942E+000   3.98110094E-006    6863.04  <-- SCF
     19  -6.11233047E+004  2.72187370E+000   1.22293732E-006    7188.16  <-- SCF
     20  -6.11233047E+004  2.72180393E+000   5.99360304E-007    7508.26  <-- SCF
     21  -6.11233048E+004  2.72181404E+000   1.91856933E-007    7822.83  <-- SCF
     22  -6.11233048E+004  2.72184791E+000   2.82232381E-008    8100.64  <-- SCF
     23  -6.11233048E+004  2.72182892E+000   7.88478980E-009    8351.04  <-- SCF
     24  -6.11233048E+004  2.72180508E+000   6.83434873E-009    8594.82  <-- SCF
     25  -6.11233048E+004  2.72180229E+000   1.43306246E-009    8840.81  <-- SCF
------------------------------------------------------------------------ <-- SCF
 
Integrated Spin Density     =    0.517951E-03 hbar/2
Integrated |Spin Density|   =    0.206254E-02 hbar/2
 
Final energy, E             =  -61123.11281327     eV
Final free energy (E-TS)    =  -61123.30475382     eV
(energies not corrected for finite basis set)
 
NB est. 0K energy (E-0.5TS)      =  -61123.20878355     eV
 

 ************************** Forces **************************
 *                                                          *
 *               Cartesian components (eV/A)                *
 * -------------------------------------------------------- *
 *                         x            y            z      *
 *                                                          *
 * P               1      0.10450      0.10450     -0.02587 *
 * P               2     -0.06153      0.06725      0.01029 *
 * P               3      0.06725     -0.06153      0.01029 *
 * P               4      0.03183      0.03183      0.13229 *
 * P               5     -0.00202     -0.00202     -0.00619 *
 * P               6      0.01104     -0.09042     -0.01965 *
 * P               7     -0.09042      0.01104     -0.01965 *
 * P               8     -0.02237     -0.02237      0.02812 *
 * P               9      0.04588     -0.02917      0.04774 *
 * P              10      0.01361     -0.02452      0.03775 *
 * P              11      0.01316      0.03027      0.01870 *
 * P              12      0.00209      0.00167      0.04234 *
 * P              13     -0.00451     -0.03331     -0.05062 *
 * P              14      0.10184      0.10515      0.10838 *
 * P              15     -0.00886     -0.01369      0.00023 *
 * P              16      0.00434      0.02058      0.07049 *
 * P              17     -0.02917      0.04588      0.04774 *
 * P              18      0.03027      0.01316      0.01870 *
 * P              19     -0.02451      0.01361      0.03775 *
 * P              20      0.00167      0.00209      0.04234 *
 * P              21     -0.03331     -0.00451     -0.05062 *
 * P              22     -0.01369     -0.00886      0.00023 *
 * P              23      0.10514      0.10184      0.10838 *
 * P              24      0.02058      0.00434      0.07049 *
 * P              25     -0.06170     -0.06170     -0.21224 *
 * P              26     -0.00837      0.04914      0.01748 *
 * P              27      0.04914     -0.00837      0.01748 *
 * P              28     -0.10685     -0.10685     -0.05578 *
 * P              29      0.04998      0.04998      0.05952 *
 * P              30     -0.05553     -0.01612     -0.09567 *
 * P              31     -0.01612     -0.05553     -0.09567 *
 * P              32     -0.02581     -0.02581      0.00736 *
 * In              1      0.00878      0.00878      0.01740 *
 * In              2      0.06172      0.02569     -0.06652 *
 * In              3      0.02569      0.06172     -0.06652 *
 * In              4      0.00372      0.00372     -0.03900 *
 * In              5      0.09297      0.09298      0.16210 *
 * In              6     -0.03585     -0.01557      0.04545 *
 * In              7     -0.01557     -0.03585      0.04545 *
 * In              8     -0.50289     -0.50289      0.10404 *
 * In              9      0.02930      0.05363     -0.07662 *
 * In             10     -0.03785      0.10537     -0.05109 *
 * In             11     -0.03240     -0.03956     -0.00675 *
 * In             12     -0.11412      0.02604      0.05016 *
 * In             13     -0.00662      0.01186     -0.06206 *
 * In             14      0.20259      0.01375     -0.12269 *
 * In             15      0.06896      0.05310      0.01221 *
 * In             16      0.01264     -0.05364     -0.05124 *
 * In             17      0.05363      0.02930     -0.07662 *
 * In             18     -0.03956     -0.03240     -0.00675 *
 * In             19      0.10537     -0.03784     -0.05109 *
 * In             20      0.02604     -0.11412      0.05016 *
 * In             21      0.01186     -0.00662     -0.06206 *
 * In             22      0.05309      0.06896      0.01221 *
 * In             23      0.01376      0.20259     -0.12269 *
 * In             24     -0.05363      0.01264     -0.05125 *
 * In             25      0.01315      0.01315      0.02014 *
 * In             26      0.02031     -0.06042     -0.11702 *
 * In             27     -0.06042      0.02031     -0.11702 *
 * In             28     -0.01053     -0.01053      0.00174 *
 * In             29     -0.06771     -0.08654      0.04760 *
 * In             30     -0.08654     -0.06771      0.04760 *
 * In             31      0.17260      0.17260      0.22858 *
 *                                                          *
 ************************************************************

 Pseudo atomic calculation performed for P 3s2 3p3

 Converged in 23 iterations to a total energy of -208.0292 eV

 Pseudo atomic calculation performed for In 4d10 5s2 5p1

 Converged in 42 iterations to a total energy of -1747.4501 eV
Charge spilling parameter for spin component 1 = 0.17%
Charge spilling parameter for spin component 2 = 0.17%

                   Orbital Populations                  
  ---------------------------------------------------------------
     Ion    Atom   Orbital              Up        Down      Spin
  ---------------------------------------------------------------
      P     1      S                    0.895     0.895    -0.000
      P     1      Px                   0.631     0.631     0.000
      P     1      Py                   0.631     0.631     0.000
      P     1      Pz                   0.648     0.648     0.000
      P     2      S                    0.874     0.874     0.000
      P     2      Px                   0.654     0.654     0.000
      P     2      Py                   0.647     0.647     0.000
      P     2      Pz                   0.651     0.651     0.000
      P     3      S                    0.874     0.874     0.000
      P     3      Px                   0.647     0.647     0.000
      P     3      Py                   0.654     0.654     0.000
      P     3      Pz                   0.651     0.651     0.000
      P     4      S                    0.901     0.901    -0.000
      P     4      Px                   0.592     0.592    -0.000
      P     4      Py                   0.592     0.592    -0.000
      P     4      Pz                   0.622     0.622    -0.000
      P     5      S                    0.870     0.870    -0.000
      P     5      Px                   0.656     0.656     0.000
      P     5      Py                   0.656     0.656     0.000
      P     5      Pz                   0.650     0.650    -0.000
      P     6      S                    0.873     0.873    -0.000
      P     6      Px                   0.666     0.666    -0.000
      P     6      Py                   0.634     0.634     0.000
      P     6      Pz                   0.652     0.652    -0.000
      P     7      S                    0.873     0.873    -0.000
      P     7      Px                   0.634     0.634     0.000
      P     7      Py                   0.666     0.666    -0.000
      P     7      Pz                   0.652     0.652    -0.000
      P     8      S                    0.870     0.870    -0.000
      P     8      Px                   0.651     0.651    -0.000
      P     8      Py                   0.651     0.651    -0.000
      P     8      Pz                   0.658     0.658     0.000
      P     9      S                    0.869     0.869     0.000
      P     9      Px                   0.654     0.654    -0.000
      P     9      Py                   0.656     0.656    -0.000
      P     9      Pz                   0.653     0.653     0.000
      P    10      S                    0.868     0.868     0.000
      P    10      Px                   0.658     0.658    -0.000
      P    10      Py                   0.657     0.657    -0.000
      P    10      Pz                   0.650     0.650     0.000
      P    11      S                    0.871     0.871     0.000
      P    11      Px                   0.654     0.654     0.000
      P    11      Py                   0.655     0.655     0.000
      P    11      Pz                   0.650     0.650    -0.000
      P    12      S                    0.870     0.870     0.000
      P    12      Px                   0.653     0.653    -0.000
      P    12      Py                   0.652     0.652     0.000
      P    12      Pz                   0.657     0.657    -0.000
      P    13      S                    0.871     0.871    -0.000
      P    13      Px                   0.649     0.649     0.000
      P    13      Py                   0.655     0.655     0.000
      P    13      Pz                   0.653     0.653     0.000
      P    14      S                    0.900     0.900     0.000
      P    14      Px                   0.624     0.624     0.000
      P    14      Py                   0.630     0.630     0.000
      P    14      Pz                   0.632     0.632     0.000
      P    15      S                    0.873     0.873     0.000
      P    15      Px                   0.647     0.647     0.000
      P    15      Py                   0.649     0.649     0.000
      P    15      Pz                   0.658     0.658     0.000
      P    16      S                    0.874     0.874    -0.000
      P    16      Px                   0.657     0.657     0.000
      P    16      Py                   0.650     0.650     0.000
      P    16      Pz                   0.645     0.645     0.000
      P    17      S                    0.869     0.869     0.000
      P    17      Px                   0.656     0.656    -0.000
      P    17      Py                   0.654     0.654    -0.000
      P    17      Pz                   0.653     0.653     0.000
      P    18      S                    0.871     0.871     0.000
      P    18      Px                   0.655     0.655    -0.000
      P    18      Py                   0.654     0.654    -0.000
      P    18      Pz                   0.650     0.650    -0.000
      P    19      S                    0.868     0.868     0.000
      P    19      Px                   0.657     0.657    -0.000
      P    19      Py                   0.658     0.658     0.000
      P    19      Pz                   0.650     0.650     0.000
      P    20      S                    0.870     0.870     0.000
      P    20      Px                   0.652     0.652     0.000
      P    20      Py                   0.653     0.653    -0.000
      P    20      Pz                   0.657     0.657    -0.000
      P    21      S                    0.871     0.871    -0.000
      P    21      Px                   0.655     0.655     0.000
      P    21      Py                   0.649     0.649     0.000
      P    21      Pz                   0.653     0.653     0.000
      P    22      S                    0.873     0.873     0.000
      P    22      Px                   0.649     0.649     0.000
      P    22      Py                   0.647     0.647     0.000
      P    22      Pz                   0.658     0.658     0.000
      P    23      S                    0.900     0.900     0.000
      P    23      Px                   0.630     0.630     0.000
      P    23      Py                   0.624     0.624     0.000
      P    23      Pz                   0.632     0.632     0.000
      P    24      S                    0.874     0.874     0.000
      P    24      Px                   0.650     0.650     0.000
      P    24      Py                   0.657     0.657     0.000
      P    24      Pz                   0.645     0.645    -0.000
      P    25      S                    0.909     0.909    -0.000
      P    25      Px                   0.568     0.568    -0.000
      P    25      Py                   0.568     0.568    -0.000
      P    25      Pz                   0.667     0.666     0.000
      P    26      S                    0.873     0.873     0.000
      P    26      Px                   0.649     0.649     0.000
      P    26      Py                   0.654     0.654     0.000
      P    26      Pz                   0.651     0.651     0.000
      P    27      S                    0.873     0.873     0.000
      P    27      Px                   0.654     0.654    -0.000
      P    27      Py                   0.649     0.649     0.000
      P    27      Pz                   0.651     0.651     0.000
      P    28      S                    0.878     0.878     0.000
      P    28      Px                   0.641     0.641     0.000
      P    28      Py                   0.641     0.641     0.000
      P    28      Pz                   0.661     0.661     0.000
      P    29      S                    0.869     0.869    -0.000
      P    29      Px                   0.655     0.655     0.000
      P    29      Py                   0.655     0.655     0.000
      P    29      Pz                   0.654     0.654    -0.000
      P    30      S                    0.872     0.872    -0.000
      P    30      Px                   0.647     0.647     0.000
      P    30      Py                   0.662     0.662    -0.000
      P    30      Pz                   0.651     0.651     0.000
      P    31      S                    0.872     0.872    -0.000
      P    31      Px                   0.662     0.662    -0.000
      P    31      Py                   0.647     0.647     0.000
      P    31      Pz                   0.651     0.651     0.000
      P    32      S                    0.870     0.870     0.000
      P    32      Px                   0.655     0.655     0.000
      P    32      Py                   0.655     0.655     0.000
      P    32      Pz                   0.654     0.654     0.000
     In     1      Dzz                  1.000     1.000     0.000
     In     1      Dzy                  0.998     0.998    -0.000
     In     1      Dzx                  0.998     0.998    -0.000
     In     1      Dxx-yy               1.000     1.000     0.000
     In     1      Dxy                  0.998     0.998     0.000
     In     1      S                    0.704     0.704    -0.000
     In     1      Px                   0.239     0.239     0.000
     In     1      Py                   0.239     0.239     0.000
     In     1      Pz                   0.240     0.240    -0.000
     In     1      S                   -0.235    -0.235     0.000
     In     2      Dzz                  1.000     1.000     0.000
     In     2      Dzy                  0.998     0.998    -0.000
     In     2      Dzx                  0.999     0.999     0.000
     In     2      Dxx-yy               1.000     1.000    -0.000
     In     2      Dxy                  0.999     0.999    -0.000
     In     2      S                    0.705     0.705     0.000
     In     2      Px                   0.243     0.243    -0.000
     In     2      Py                   0.242     0.242    -0.000
     In     2      Pz                   0.239     0.239    -0.000
     In     2      S                   -0.253    -0.253     0.000
     In     3      Dzz                  1.000     1.000     0.000
     In     3      Dzy                  0.999     0.999     0.000
     In     3      Dzx                  0.998     0.998    -0.000
     In     3      Dxx-yy               1.000     1.000    -0.000
     In     3      Dxy                  0.999     0.999    -0.000
     In     3      S                    0.705     0.705    -0.000
     In     3      Px                   0.242     0.242    -0.000
     In     3      Py                   0.243     0.243    -0.000
     In     3      Pz                   0.239     0.239    -0.000
     In     3      S                   -0.253    -0.253     0.000
     In     4      Dzz                  1.000     1.000     0.000
     In     4      Dzy                  0.998     0.998     0.000
     In     4      Dzx                  0.998     0.998     0.000
     In     4      Dxx-yy               1.000     1.000     0.000
     In     4      Dxy                  0.999     0.999     0.000
     In     4      S                    0.708     0.708    -0.000
     In     4      Px                   0.240     0.240     0.000
     In     4      Py                   0.240     0.240     0.000
     In     4      Pz                   0.241     0.241     0.000
     In     4      S                   -0.268    -0.268     0.000
     In     5      Dzz                  1.000     1.000     0.000
     In     5      Dzy                  0.999     0.999    -0.000
     In     5      Dzx                  0.999     0.999    -0.000
     In     5      Dxx-yy               1.000     1.000     0.000
     In     5      Dxy                  0.999     0.999    -0.000
     In     5      S                    0.705     0.705     0.000
     In     5      Px                   0.240     0.240     0.000
     In     5      Py                   0.240     0.240     0.000
     In     5      Pz                   0.239     0.239     0.000
     In     5      S                   -0.231    -0.231    -0.000
     In     6      Dzz                  1.000     1.000    -0.000
     In     6      Dzy                  0.999     0.999     0.000
     In     6      Dzx                  0.999     0.999    -0.000
     In     6      Dxx-yy               1.000     1.000     0.000
     In     6      Dxy                  0.999     0.999     0.000
     In     6      S                    0.711     0.711    -0.000
     In     6      Px                   0.235     0.235     0.000
     In     6      Py                   0.238     0.238     0.000
     In     6      Pz                   0.238     0.238    -0.000
     In     6      S                   -0.258    -0.258     0.000
     In     7      Dzz                  1.000     1.000    -0.000
     In     7      Dzy                  0.999     0.999    -0.000
     In     7      Dzx                  0.999     0.999     0.000
     In     7      Dxx-yy               1.000     1.000     0.000
     In     7      Dxy                  0.999     0.999     0.000
     In     7      S                    0.711     0.711    -0.000
     In     7      Px                   0.238     0.238     0.000
     In     7      Py                   0.235     0.235     0.000
     In     7      Pz                   0.238     0.238    -0.000
     In     7      S                   -0.258    -0.258     0.000
     In     8      Dzz                  1.000     1.000    -0.000
     In     8      Dzy                  0.999     0.999    -0.000
     In     8      Dzx                  0.999     0.999    -0.000
     In     8      Dxx-yy               0.999     0.999     0.000
     In     8      Dxy                  0.999     0.999     0.000
     In     8      S                    0.720     0.720    -0.000
     In     8      Px                   0.222     0.222    -0.000
     In     8      Py                   0.222     0.222    -0.000
     In     8      Pz                   0.201     0.201    -0.000
     In     8      S                   -0.230    -0.230     0.000
     In     9      Dzz                  1.000     1.000    -0.000
     In     9      Dzy                  0.998     0.998    -0.000
     In     9      Dzx                  0.999     0.999     0.000
     In     9      Dxx-yy               1.000     1.000    -0.000
     In     9      Dxy                  0.999     0.999     0.000
     In     9      S                    0.710     0.710    -0.000
     In     9      Px                   0.236     0.236     0.000
     In     9      Py                   0.240     0.240    -0.000
     In     9      Pz                   0.239     0.239    -0.000
     In     9      S                   -0.248    -0.248    -0.000
     In    10      Dzz                  1.000     1.000    -0.000
     In    10      Dzy                  0.999     0.999    -0.000
     In    10      Dzx                  0.998     0.998     0.000
     In    10      Dxx-yy               0.999     0.999     0.000
     In    10      Dxy                  0.999     0.999     0.000
     In    10      S                    0.702     0.702     0.000
     In    10      Px                   0.243     0.243     0.000
     In    10      Py                   0.241     0.241    -0.000
     In    10      Pz                   0.239     0.239    -0.000
     In    10      S                   -0.224    -0.225     0.000
     In    11      Dzz                  1.000     1.000     0.000
     In    11      Dzy                  0.999     0.999     0.000
     In    11      Dzx                  0.998     0.998    -0.000
     In    11      Dxx-yy               1.000     1.000    -0.000
     In    11      Dxy                  0.998     0.998    -0.000
     In    11      S                    0.707     0.707     0.000
     In    11      Px                   0.243     0.243    -0.000
     In    11      Py                   0.239     0.239    -0.000
     In    11      Pz                   0.238     0.238    -0.000
     In    11      S                   -0.263    -0.263    -0.000
     In    12      Dzz                  1.000     1.000    -0.000
     In    12      Dzy                  0.998     0.998     0.000
     In    12      Dzx                  0.998     0.998     0.000
     In    12      Dxx-yy               1.000     1.000    -0.000
     In    12      Dxy                  0.998     0.998    -0.000
     In    12      S                    0.705     0.705    -0.000
     In    12      Px                   0.243     0.243    -0.000
     In    12      Py                   0.240     0.240     0.000
     In    12      Pz                   0.238     0.238    -0.000
     In    12      S                   -0.261    -0.261     0.000
     In    13      Dzz                  1.000     1.000    -0.000
     In    13      Dzy                  0.999     0.999     0.000
     In    13      Dzx                  0.999     0.999    -0.000
     In    13      Dxx-yy               1.000     1.000     0.000
     In    13      Dxy                  0.998     0.998     0.000
     In    13      S                    0.711     0.711     0.000
     In    13      Px                   0.240     0.240    -0.000
     In    13      Py                   0.237     0.237    -0.000
     In    13      Pz                   0.238     0.238    -0.000
     In    13      S                   -0.260    -0.260    -0.000
     In    14      Dzz                  1.000     1.000     0.000
     In    14      Dzy                  0.998     0.998    -0.000
     In    14      Dzx                  0.998     0.998    -0.000
     In    14      Dxx-yy               1.000     1.000     0.000
     In    14      Dxy                  0.998     0.998     0.000
     In    14      S                    0.696     0.696    -0.000
     In    14      Px                   0.244     0.244    -0.000
     In    14      Py                   0.250     0.250     0.000
     In    14      Pz                   0.241     0.241    -0.000
     In    14      S                   -0.226    -0.226    -0.000
     In    15      Dzz                  1.000     1.000     0.000
     In    15      Dzy                  0.998     0.998     0.000
     In    15      Dzx                  0.999     0.999     0.000
     In    15      Dxx-yy               1.000     1.000    -0.000
     In    15      Dxy                  0.999     0.999     0.000
     In    15      S                    0.711     0.711     0.000
     In    15      Px                   0.237     0.237     0.000
     In    15      Py                   0.238     0.238     0.000
     In    15      Pz                   0.241     0.241    -0.000
     In    15      S                   -0.264    -0.264     0.000
     In    16      Dzz                  1.000     1.000    -0.000
     In    16      Dzy                  0.998     0.998     0.000
     In    16      Dzx                  0.999     0.999    -0.000
     In    16      Dxx-yy               1.000     1.000    -0.000
     In    16      Dxy                  0.998     0.998    -0.000
     In    16      S                    0.706     0.706    -0.000
     In    16      Px                   0.238     0.238    -0.000
     In    16      Py                   0.240     0.240    -0.000
     In    16      Pz                   0.248     0.248    -0.000
     In    16      S                   -0.242    -0.242     0.000
     In    17      Dzz                  1.000     1.000     0.000
     In    17      Dzy                  0.999     0.999     0.000
     In    17      Dzx                  0.998     0.998    -0.000
     In    17      Dxx-yy               1.000     1.000    -0.000
     In    17      Dxy                  0.999     0.999     0.000
     In    17      S                    0.710     0.710    -0.000
     In    17      Px                   0.240     0.240    -0.000
     In    17      Py                   0.236     0.236     0.000
     In    17      Pz                   0.239     0.239    -0.000
     In    17      S                   -0.248    -0.248    -0.000
     In    18      Dzz                  1.000     1.000     0.000
     In    18      Dzy                  0.998     0.998    -0.000
     In    18      Dzx                  0.999     0.999     0.000
     In    18      Dxx-yy               1.000     1.000    -0.000
     In    18      Dxy                  0.998     0.998    -0.000
     In    18      S                    0.707     0.707     0.000
     In    18      Px                   0.239     0.239    -0.000
     In    18      Py                   0.243     0.243    -0.000
     In    18      Pz                   0.238     0.238    -0.000
     In    18      S                   -0.263    -0.263    -0.000
     In    19      Dzz                  1.000     1.000    -0.000
     In    19      Dzy                  0.998     0.998     0.000
     In    19      Dzx                  0.999     0.999    -0.000
     In    19      Dxx-yy               0.999     0.999     0.000
     In    19      Dxy                  0.999     0.999    -0.000
     In    19      S                    0.702     0.702     0.000
     In    19      Px                   0.241     0.241    -0.000
     In    19      Py                   0.243     0.243     0.000
     In    19      Pz                   0.239     0.239    -0.000
     In    19      S                   -0.224    -0.225     0.000
     In    20      Dzz                  1.000     1.000    -0.000
     In    20      Dzy                  0.998     0.998     0.000
     In    20      Dzx                  0.998     0.998    -0.000
     In    20      Dxx-yy               1.000     1.000    -0.000
     In    20      Dxy                  0.998     0.998     0.000
     In    20      S                    0.705     0.705    -0.000
     In    20      Px                   0.240     0.240    -0.000
     In    20      Py                   0.243     0.243    -0.000
     In    20      Pz                   0.238     0.238    -0.000
     In    20      S                   -0.261    -0.261     0.000
     In    21      Dzz                  1.000     1.000    -0.000
     In    21      Dzy                  0.999     0.999     0.000
     In    21      Dzx                  0.999     0.999     0.000
     In    21      Dxx-yy               1.000     1.000     0.000
     In    21      Dxy                  0.998     0.998     0.000
     In    21      S                    0.711     0.711     0.000
     In    21      Px                   0.237     0.237    -0.000
     In    21      Py                   0.240     0.240    -0.000
     In    21      Pz                   0.238     0.238    -0.000
     In    21      S                   -0.260    -0.260    -0.000
     In    22      Dzz                  1.000     1.000     0.000
     In    22      Dzy                  0.999     0.999     0.000
     In    22      Dzx                  0.998     0.998     0.000
     In    22      Dxx-yy               1.000     1.000    -0.000
     In    22      Dxy                  0.999     0.999     0.000
     In    22      S                    0.711     0.711     0.000
     In    22      Px                   0.238     0.238     0.000
     In    22      Py                   0.237     0.237     0.000
     In    22      Pz                   0.241     0.241    -0.000
     In    22      S                   -0.264    -0.264     0.000
     In    23      Dzz                  1.000     1.000     0.000
     In    23      Dzy                  0.998     0.998    -0.000
     In    23      Dzx                  0.998     0.998    -0.000
     In    23      Dxx-yy               1.000     1.000    -0.000
     In    23      Dxy                  0.998     0.998     0.000
     In    23      S                    0.696     0.696    -0.000
     In    23      Px                   0.250     0.250    -0.000
     In    23      Py                   0.244     0.244    -0.000
     In    23      Pz                   0.241     0.241    -0.000
     In    23      S                   -0.226    -0.226    -0.000
     In    24      Dzz                  1.000     1.000    -0.000
     In    24      Dzy                  0.999     0.999    -0.000
     In    24      Dzx                  0.998     0.998     0.000
     In    24      Dxx-yy               1.000     1.000    -0.000
     In    24      Dxy                  0.998     0.998    -0.000
     In    24      S                    0.706     0.706    -0.000
     In    24      Px                   0.240     0.240    -0.000
     In    24      Py                   0.238     0.238    -0.000
     In    24      Pz                   0.248     0.248    -0.000
     In    24      S                   -0.242    -0.242     0.000
     In    25      Dzz                  1.000     1.000    -0.000
     In    25      Dzy                  0.998     0.998     0.000
     In    25      Dzx                  0.998     0.998     0.000
     In    25      Dxx-yy               1.000     1.000    -0.000
     In    25      Dxy                  0.998     0.998    -0.000
     In    25      S                    0.708     0.708     0.000
     In    25      Px                   0.243     0.243    -0.000
     In    25      Py                   0.243     0.243    -0.000
     In    25      Pz                   0.234     0.234    -0.000
     In    25      S                   -0.271    -0.271    -0.000
     In    26      Dzz                  1.000     1.000    -0.000
     In    26      Dzy                  0.999     0.999    -0.000
     In    26      Dzx                  0.998     0.998     0.000
     In    26      Dxx-yy               1.000     1.000     0.000
     In    26      Dxy                  0.999     0.999     0.000
     In    26      S                    0.696     0.696     0.000
     In    26      Px                   0.243     0.243     0.000
     In    26      Py                   0.240     0.240    -0.000
     In    26      Pz                   0.242     0.242    -0.000
     In    26      S                   -0.229    -0.229    -0.000
     In    27      Dzz                  1.000     1.000    -0.000
     In    27      Dzy                  0.998     0.998     0.000
     In    27      Dzx                  0.999     0.999     0.000
     In    27      Dxx-yy               1.000     1.000     0.000
     In    27      Dxy                  0.999     0.999     0.000
     In    27      S                    0.696     0.696     0.000
     In    27      Px                   0.240     0.240    -0.000
     In    27      Py                   0.243     0.243     0.000
     In    27      Pz                   0.242     0.242    -0.000
     In    27      S                   -0.229    -0.229    -0.000
     In    28      Dzz                  1.000     1.000     0.000
     In    28      Dzy                  0.998     0.998     0.000
     In    28      Dzx                  0.998     0.998    -0.000
     In    28      Dxx-yy               1.000     1.000    -0.000
     In    28      Dxy                  0.999     0.999    -0.000
     In    28      S                    0.707     0.707    -0.000
     In    28      Px                   0.239     0.239    -0.000
     In    28      Py                   0.239     0.239    -0.000
     In    28      Pz                   0.242     0.242    -0.000
     In    28      S                   -0.258    -0.258     0.000
     In    29      Dzz                  1.000     1.000     0.000
     In    29      Dzy                  0.999     0.999    -0.000
     In    29      Dzx                  0.998     0.998     0.000
     In    29      Dxx-yy               1.000     1.000     0.000
     In    29      Dxy                  0.998     0.998     0.000
     In    29      S                    0.703     0.703    -0.000
     In    29      Px                   0.242     0.242    -0.000
     In    29      Py                   0.247     0.247    -0.000
     In    29      Pz                   0.237     0.237    -0.000
     In    29      S                   -0.239    -0.239    -0.000
     In    30      Dzz                  1.000     1.000     0.000
     In    30      Dzy                  0.998     0.998     0.000
     In    30      Dzx                  0.999     0.999    -0.000
     In    30      Dxx-yy               1.000     1.000     0.000
     In    30      Dxy                  0.998     0.998     0.000
     In    30      S                    0.703     0.703    -0.000
     In    30      Px                   0.247     0.247    -0.000
     In    30      Py                   0.242     0.242    -0.000
     In    30      Pz                   0.237     0.237    -0.000
     In    30      S                   -0.239    -0.239    -0.000
     In    31      Dzz                  1.000     1.000    -0.000
     In    31      Dzy                  0.999     0.999     0.000
     In    31      Dzx                  0.999     0.999     0.000
     In    31      Dxx-yy               1.000     1.000     0.000
     In    31      Dxy                  0.999     0.999    -0.000
     In    31      S                    0.716     0.716     0.000
     In    31      Px                   0.231     0.231    -0.000
     In    31      Py                   0.231     0.231    -0.000
     In    31      Pz                   0.224     0.224    -0.000
     In    31      S                   -0.223    -0.223    -0.000
  ---------------------------------------------------------------
                           Total:     281.500   281.499     0.001
  ---------------------------------------------------------------

     Atomic Populations (Mulliken)
     -----------------------------
Species          Ion Spin      s       p       d       f      Total   Charge(e)   Spin(hbar/2)
==============================================================================================
  P               1   up:     0.895   1.911   0.000   0.000   2.806    -0.613        0.000
                  1   dn:     0.895   1.911   0.000   0.000   2.806
  P               2   up:     0.874   1.952   0.000   0.000   2.826    -0.651        0.000
                  2   dn:     0.874   1.952   0.000   0.000   2.826
  P               3   up:     0.874   1.952   0.000   0.000   2.826    -0.651        0.000
                  3   dn:     0.874   1.952   0.000   0.000   2.826
  P               4   up:     0.901   1.806   0.000   0.000   2.707    -0.414       -0.000
                  4   dn:     0.901   1.806   0.000   0.000   2.707
  P               5   up:     0.870   1.962   0.000   0.000   2.833    -0.665       -0.000
                  5   dn:     0.870   1.962   0.000   0.000   2.833
  P               6   up:     0.873   1.953   0.000   0.000   2.825    -0.651       -0.000
                  6   dn:     0.873   1.953   0.000   0.000   2.825
  P               7   up:     0.873   1.953   0.000   0.000   2.825    -0.651       -0.000
                  7   dn:     0.873   1.953   0.000   0.000   2.825
  P               8   up:     0.870   1.960   0.000   0.000   2.830    -0.660       -0.000
                  8   dn:     0.870   1.960   0.000   0.000   2.830
  P               9   up:     0.869   1.964   0.000   0.000   2.833    -0.666        0.000
                  9   dn:     0.869   1.964   0.000   0.000   2.833
  P              10   up:     0.868   1.965   0.000   0.000   2.832    -0.665        0.000
                 10   dn:     0.868   1.965   0.000   0.000   2.832
  P              11   up:     0.871   1.959   0.000   0.000   2.830    -0.660       -0.000
                 11   dn:     0.871   1.959   0.000   0.000   2.830
  P              12   up:     0.870   1.962   0.000   0.000   2.832    -0.664        0.000
                 12   dn:     0.870   1.962   0.000   0.000   2.832
  P              13   up:     0.871   1.957   0.000   0.000   2.828    -0.657        0.000
                 13   dn:     0.871   1.957   0.000   0.000   2.828
  P              14   up:     0.900   1.886   0.000   0.000   2.785    -0.571        0.000
                 14   dn:     0.900   1.885   0.000   0.000   2.785
  P              15   up:     0.873   1.954   0.000   0.000   2.827    -0.655        0.000
                 15   dn:     0.873   1.954   0.000   0.000   2.827
  P              16   up:     0.874   1.952   0.000   0.000   2.826    -0.652        0.000
                 16   dn:     0.874   1.952   0.000   0.000   2.826
  P              17   up:     0.869   1.964   0.000   0.000   2.833    -0.666       -0.000
                 17   dn:     0.869   1.964   0.000   0.000   2.833
  P              18   up:     0.871   1.959   0.000   0.000   2.830    -0.660       -0.000
                 18   dn:     0.871   1.959   0.000   0.000   2.830
  P              19   up:     0.868   1.965   0.000   0.000   2.832    -0.665        0.000
                 19   dn:     0.868   1.965   0.000   0.000   2.832
  P              20   up:     0.870   1.962   0.000   0.000   2.832    -0.664        0.000
                 20   dn:     0.870   1.962   0.000   0.000   2.832
  P              21   up:     0.871   1.957   0.000   0.000   2.828    -0.657        0.000
                 21   dn:     0.871   1.957   0.000   0.000   2.828
  P              22   up:     0.873   1.954   0.000   0.000   2.827    -0.655        0.000
                 22   dn:     0.873   1.954   0.000   0.000   2.827
  P              23   up:     0.900   1.886   0.000   0.000   2.785    -0.571        0.000
                 23   dn:     0.900   1.885   0.000   0.000   2.785
  P              24   up:     0.874   1.952   0.000   0.000   2.826    -0.652        0.000
                 24   dn:     0.874   1.952   0.000   0.000   2.826
  P              25   up:     0.909   1.802   0.000   0.000   2.711    -0.421       -0.000
                 25   dn:     0.909   1.802   0.000   0.000   2.711
  P              26   up:     0.873   1.953   0.000   0.000   2.826    -0.653        0.000
                 26   dn:     0.873   1.953   0.000   0.000   2.826
  P              27   up:     0.873   1.953   0.000   0.000   2.826    -0.653        0.000
                 27   dn:     0.873   1.953   0.000   0.000   2.826
  P              28   up:     0.878   1.943   0.000   0.000   2.821    -0.642        0.000
                 28   dn:     0.878   1.943   0.000   0.000   2.821
  P              29   up:     0.869   1.963   0.000   0.000   2.833    -0.665       -0.000
                 29   dn:     0.869   1.963   0.000   0.000   2.833
  P              30   up:     0.872   1.960   0.000   0.000   2.832    -0.663        0.000
                 30   dn:     0.872   1.960   0.000   0.000   2.832
  P              31   up:     0.872   1.960   0.000   0.000   2.832    -0.663        0.000
                 31   dn:     0.872   1.960   0.000   0.000   2.832
  P              32   up:     0.870   1.963   0.000   0.000   2.833    -0.666        0.000
                 32   dn:     0.870   1.963   0.000   0.000   2.833
  In              1   up:     0.469   0.719   4.995   0.000   6.182     0.635       -0.000
                  1   dn:     0.469   0.719   4.995   0.000   6.182
  In              2   up:     0.452   0.724   4.995   0.000   6.170     0.659        0.000
                  2   dn:     0.452   0.724   4.995   0.000   6.170
  In              3   up:     0.452   0.724   4.995   0.000   6.170     0.659       -0.000
                  3   dn:     0.452   0.724   4.995   0.000   6.170
  In              4   up:     0.440   0.720   4.995   0.000   6.156     0.689        0.000
                  4   dn:     0.440   0.720   4.995   0.000   6.156
  In              5   up:     0.474   0.719   4.995   0.000   6.188     0.625        0.000
                  5   dn:     0.474   0.719   4.995   0.000   6.188
  In              6   up:     0.453   0.711   4.995   0.000   6.159     0.682        0.000
                  6   dn:     0.453   0.711   4.995   0.000   6.159
  In              7   up:     0.453   0.711   4.995   0.000   6.159     0.682        0.000
                  7   dn:     0.453   0.711   4.995   0.000   6.159
  In              8   up:     0.490   0.645   4.996   0.000   6.131     0.739       -0.000
                  8   dn:     0.490   0.645   4.996   0.000   6.131
  In              9   up:     0.462   0.714   4.995   0.000   6.171     0.657       -0.000
                  9   dn:     0.462   0.714   4.995   0.000   6.171
  In             10   up:     0.478   0.722   4.995   0.000   6.195     0.611       -0.000
                 10   dn:     0.478   0.722   4.995   0.000   6.195
  In             11   up:     0.443   0.721   4.995   0.000   6.158     0.683       -0.000
                 11   dn:     0.443   0.721   4.995   0.000   6.158
  In             12   up:     0.444   0.722   4.994   0.000   6.160     0.680       -0.000
                 12   dn:     0.444   0.722   4.994   0.000   6.160
  In             13   up:     0.451   0.716   4.995   0.000   6.162     0.677       -0.000
                 13   dn:     0.451   0.716   4.995   0.000   6.162
  In             14   up:     0.470   0.734   4.994   0.000   6.199     0.603        0.000
                 14   dn:     0.470   0.734   4.994   0.000   6.199
  In             15   up:     0.447   0.715   4.995   0.000   6.157     0.685        0.000
                 15   dn:     0.447   0.715   4.995   0.000   6.157
  In             16   up:     0.464   0.726   4.995   0.000   6.184     0.631       -0.000
                 16   dn:     0.464   0.726   4.995   0.000   6.184
  In             17   up:     0.462   0.714   4.995   0.000   6.171     0.657       -0.000
                 17   dn:     0.462   0.714   4.995   0.000   6.171
  In             18   up:     0.443   0.721   4.995   0.000   6.158     0.683       -0.000
                 18   dn:     0.443   0.721   4.995   0.000   6.158
  In             19   up:     0.478   0.722   4.995   0.000   6.195     0.610       -0.000
                 19   dn:     0.478   0.722   4.995   0.000   6.195
  In             20   up:     0.444   0.722   4.994   0.000   6.160     0.680       -0.000
                 20   dn:     0.444   0.722   4.994   0.000   6.160
  In             21   up:     0.451   0.716   4.995   0.000   6.162     0.677       -0.000
                 21   dn:     0.451   0.716   4.995   0.000   6.162
  In             22   up:     0.447   0.715   4.995   0.000   6.157     0.685        0.000
                 22   dn:     0.447   0.715   4.995   0.000   6.157
  In             23   up:     0.470   0.734   4.994   0.000   6.199     0.603       -0.000
                 23   dn:     0.470   0.734   4.994   0.000   6.199
  In             24   up:     0.464   0.726   4.994   0.000   6.184     0.631       -0.000
                 24   dn:     0.464   0.726   4.995   0.000   6.184
  In             25   up:     0.437   0.721   4.995   0.000   6.152     0.696       -0.000
                 25   dn:     0.437   0.721   4.995   0.000   6.152
  In             26   up:     0.467   0.725   4.995   0.000   6.187     0.627       -0.000
                 26   dn:     0.467   0.725   4.995   0.000   6.187
  In             27   up:     0.467   0.725   4.995   0.000   6.187     0.627       -0.000
                 27   dn:     0.467   0.725   4.995   0.000   6.187
  In             28   up:     0.449   0.719   4.995   0.000   6.163     0.674       -0.000
                 28   dn:     0.449   0.719   4.995   0.000   6.163
  In             29   up:     0.464   0.725   4.995   0.000   6.184     0.632       -0.000
                 29   dn:     0.464   0.726   4.995   0.000   6.184
  In             30   up:     0.464   0.725   4.995   0.000   6.184     0.632       -0.000
                 30   dn:     0.464   0.726   4.995   0.000   6.184
  In             31   up:     0.493   0.687   4.996   0.000   6.176     0.648       -0.000
                 31   dn:     0.493   0.687   4.996   0.000   6.176
==============================================================================================

                 Bond                   Population        Spin       Length (A)
================================================================================
              P 1  -- In 3                   0.74        -0.00          2.53418
              P 1  -- In 2                   0.74        -0.00          2.53418
              P 23 -- In 24                  0.76        -0.00          2.53520
              P 14 -- In 16                  0.76        -0.00          2.53520
              P 23 -- In 29                  0.78         0.00          2.53673
              P 14 -- In 30                  0.78         0.00          2.53673
              P 21 -- In 23                  0.67         0.00          2.53932
              P 13 -- In 14                  0.67         0.00          2.53932
              P 10 -- In 12                  0.68        -0.00          2.54018
              P 19 -- In 20                  0.68        -0.00          2.54018
              P 8  -- In 25                  0.67        -0.00          2.54353
              P 19 -- In 19                  0.64         0.00          2.54766
              P 10 -- In 10                  0.64         0.00          2.54766
              P 8  -- In 4                   0.68         0.00          2.54895
              P 14 -- In 14                  0.74        -0.00          2.54898
              P 23 -- In 23                  0.74        -0.00          2.54898
              P 16 -- In 12                  0.67         0.00          2.55002
              P 24 -- In 20                  0.67         0.00          2.55002
              P 29 -- In 25                  0.66        -0.00          2.55073
              P 32 -- In 22                  0.66         0.00          2.55163
              P 32 -- In 15                  0.66         0.00          2.55163
              P 18 -- In 1                   0.64         0.00          2.55454
              P 11 -- In 1                   0.64         0.00          2.55454
              P 29 -- In 28                  0.67         0.00          2.55494
              P 13 -- In 12                  0.64         0.00          2.55654
              P 21 -- In 20                  0.64         0.00          2.55654
              P 5  -- In 7                   0.65         0.00          2.55698
              P 5  -- In 6                   0.65         0.00          2.55698
              P 9  -- In 11                  0.66         0.00          2.55756
              P 17 -- In 18                  0.66         0.00          2.55756
              P 17 -- In 21                  0.66         0.00          2.55937
              P 9  -- In 13                  0.66         0.00          2.55937
              P 10 -- In 27                  0.63         0.00          2.56061
              P 19 -- In 26                  0.63        -0.00          2.56061
              P 30 -- In 29                  0.63        -0.00          2.56194
              P 31 -- In 30                  0.63         0.00          2.56194
              P 7  -- In 14                  0.59         0.00          2.56219
              P 6  -- In 23                  0.59         0.00          2.56219
              P 17 -- In 19                  0.66         0.00          2.56220
              P 9  -- In 10                  0.66         0.00          2.56220
              P 20 -- In 13                  0.66         0.00          2.56254
              P 12 -- In 21                  0.66        -0.00          2.56254
              P 28 -- In 18                  0.65         0.00          2.56273
              P 28 -- In 11                  0.65         0.00          2.56273
              P 32 -- In 1                   0.64        -0.00          2.56387
              P 3  -- In 4                   0.64         0.00          2.56434
              P 2  -- In 4                   0.64         0.00          2.56434
              P 18 -- In 18                  0.65        -0.00          2.56478
              P 11 -- In 11                  0.65        -0.00          2.56478
              P 10 -- In 25                  0.66         0.00          2.56509
              P 19 -- In 25                  0.66         0.00          2.56509
              P 18 -- In 20                  0.63         0.00          2.56605
              P 11 -- In 12                  0.63         0.00          2.56605
              P 5  -- In 1                   0.64        -0.00          2.56624
              P 13 -- In 15                  0.64         0.00          2.56741
              P 21 -- In 22                  0.64         0.00          2.56741
              P 26 -- In 9                   0.63        -0.00          2.56746
              P 27 -- In 17                  0.63        -0.00          2.56746
              P 26 -- In 11                  0.65         0.00          2.56768
              P 27 -- In 18                  0.65         0.00          2.56768
              P 32 -- In 28                  0.64        -0.00          2.56787
              P 22 -- In 7                   0.66        -0.00          2.56800
              P 15 -- In 6                   0.66        -0.00          2.56800
              P 7  -- In 13                  0.63        -0.00          2.56817
              P 6  -- In 21                  0.63        -0.00          2.56817
              P 27 -- In 28                  0.63         0.00          2.56902
              P 26 -- In 28                  0.63         0.00          2.56902
              P 30 -- In 13                  0.63        -0.00          2.56917
              P 31 -- In 21                  0.63        -0.00          2.56917
              P 15 -- In 15                  0.66        -0.00          2.56942
              P 22 -- In 22                  0.66        -0.00          2.56942
              P 20 -- In 26                  0.66         0.00          2.57007
              P 12 -- In 27                  0.66         0.00          2.57007
              P 30 -- In 15                  0.65         0.00          2.57036
              P 31 -- In 22                  0.65         0.00          2.57036
              P 20 -- In 3                   0.64         0.00          2.57065
              P 12 -- In 2                   0.64         0.00          2.57065
              P 20 -- In 24                  0.63        -0.00          2.57131
              P 12 -- In 16                  0.63        -0.00          2.57131
              P 15 -- In 16                  0.61         0.00          2.57261
              P 22 -- In 24                  0.61         0.00          2.57261
              P 29 -- In 30                  0.64         0.00          2.57378
              P 29 -- In 29                  0.64         0.00          2.57378
              P 2  -- In 17                  0.63         0.00          2.57407
              P 3  -- In 9                   0.63         0.00          2.57407
              P 5  -- In 4                   0.64        -0.00          2.57407
              P 4  -- In 8                   0.73         0.00          2.57418
              P 31 -- In 31                  0.66         0.00          2.57452
              P 30 -- In 31                  0.66         0.00          2.57452
              P 24 -- In 9                   0.63        -0.00          2.57561
              P 16 -- In 17                  0.63        -0.00          2.57561
              P 1  -- In 5                   0.71         0.00          2.57575
              P 22 -- In 5                   0.60        -0.00          2.57593
              P 15 -- In 5                   0.60        -0.00          2.57593
              P 7  -- In 8                   0.67        -0.00          2.57791
              P 6  -- In 8                   0.67        -0.00          2.57791
              P 21 -- In 17                  0.61        -0.00          2.57806
              P 13 -- In 9                   0.61        -0.00          2.57806
              P 2  -- In 19                  0.66         0.00          2.57953
              P 3  -- In 10                  0.66         0.00          2.57953
              P 18 -- In 3                   0.63         0.00          2.57996
              P 11 -- In 2                   0.63         0.00          2.57996
              P 24 -- In 7                   0.63         0.00          2.58165
              P 16 -- In 6                   0.63         0.00          2.58165
              P 9  -- In 16                  0.61        -0.00          2.58287
              P 17 -- In 24                  0.61        -0.00          2.58287
              P 7  -- In 7                   0.64         0.00          2.58718
              P 6  -- In 6                   0.64         0.00          2.58718
              P 27 -- In 27                  0.64        -0.00          2.58879
              P 26 -- In 26                  0.64        -0.00          2.58879
              P 3  -- In 3                   0.61        -0.00          2.59159
              P 2  -- In 2                   0.61        -0.00          2.59159
              P 8  -- In 23                  0.63         0.00          2.59213
              P 8  -- In 14                  0.63         0.00          2.59213
              P 25 -- In 26                  0.66         0.00          2.59289
              P 25 -- In 27                  0.66         0.00          2.59289
              P 28 -- In 5                   0.60         0.00          2.59393
              P 16 -- In 30                  0.60        -0.00          2.59605
              P 24 -- In 29                  0.60        -0.00          2.59605
              P 4  -- In 19                  0.59         0.00          2.61893
              P 4  -- In 10                  0.59         0.00          2.61893
              P 28 -- In 31                  0.57         0.00          2.66264
              P 4  -- P 25                   0.30         0.00          2.68061
              P 25 -- In 31                  0.46         0.00          2.78561
================================================================================

 Hirshfeld supercell size:           2           2           2
Standard grid dimensions: 240 240 240
Fine grid dimensions:     240 240 240


     Hirshfeld Analysis
     ------------------
Species   Ion     Hirshfeld Charge (e)  Spin (hbar/2)
===================================================
  P        1                -0.25       -0.00
  P        2                -0.23       -0.00
  P        3                -0.23       -0.00
  P        4                -0.12       -0.00
  P        5                -0.23        0.00
  P        6                -0.23       -0.00
  P        7                -0.23       -0.00
  P        8                -0.24        0.00
  P        9                -0.24       -0.00
  P       10                -0.24       -0.00
  P       11                -0.23        0.00
  P       12                -0.24       -0.00
  P       13                -0.23        0.00
  P       14                -0.23        0.00
  P       15                -0.23        0.00
  P       16                -0.23        0.00
  P       17                -0.24       -0.00
  P       18                -0.23        0.00
  P       19                -0.24       -0.00
  P       20                -0.24       -0.00
  P       21                -0.23        0.00
  P       22                -0.23        0.00
  P       23                -0.23        0.00
  P       24                -0.23        0.00
  P       25                -0.13       -0.00
  P       26                -0.23       -0.00
  P       27                -0.23       -0.00
  P       28                -0.23       -0.00
  P       29                -0.24       -0.00
  P       30                -0.23       -0.00
  P       31                -0.23       -0.00
  P       32                -0.23        0.00
  In       1                 0.24        0.00
  In       2                 0.22       -0.00
  In       3                 0.22       -0.00
  In       4                 0.23        0.00
  In       5                 0.23        0.00
  In       6                 0.25        0.00
  In       7                 0.25        0.00
  In       8                 0.30       -0.00
  In       9                 0.24        0.00
  In      10                 0.23       -0.00
  In      11                 0.23       -0.00
  In      12                 0.24        0.00
  In      13                 0.23       -0.00
  In      14                 0.21        0.00
  In      15                 0.24        0.00
  In      16                 0.22        0.00
  In      17                 0.24        0.00
  In      18                 0.23       -0.00
  In      19                 0.23       -0.00
  In      20                 0.24        0.00
  In      21                 0.23       -0.00
  In      22                 0.24        0.00
  In      23                 0.21        0.00
  In      24                 0.22        0.00
  In      25                 0.23       -0.00
  In      26                 0.22       -0.00
  In      27                 0.22       -0.00
  In      28                 0.24        0.00
  In      29                 0.22        0.00
  In      30                 0.22        0.00
  In      31                 0.26       -0.00
===================================================

 
 A BibTeX formatted list of references used in this run has been written to 
 In_Vacancy_Migration_15->60_Singlepoints_2.bib
 
Initialisation time =     30.34 s
Calculation time    =   9082.34 s
Finalisation time   =    160.96 s
Total time          =   9273.65 s
Peak Memory Use     = 9568908 kB
 
Overall parallel efficiency rating: Terrible (33%)
 
Data was distributed by:-
G-vector (3-way); efficiency rating: Poor (36%)
k-point (36-way); efficiency rating: Good (78%)
