 +-------------------------------------------------+
 |                                                 |
 |      CCC   AA    SSS  TTTTT  EEEEE  PPPP        |
 |     C     A  A  S       T    E      P   P       |
 |     C     AAAA   SS     T    EEE    PPPP        |
 |     C     A  A     S    T    E      P           |
 |      CCC  A  A  SSS     T    EEEEE  P           |
 |                                                 |
 +-------------------------------------------------+
 |                                                 |
 | Welcome to Academic Release CASTEP version 24.1 |
 | Ab Initio Total Energy Program                  |
 |                                                 |
 | Authors:                                        |
 | M. Segall, M. Probert, C. Pickard, P. Hasnip,   |
 | S. Clark, K. Refson, J. R. Yates,               |
 | A. Bartok-Partay, M. Payne                      |
 |                                                 |
 | Contributors:                                   |
 | P. Lindan, P. Haynes, J. White, V. Milman,      |
 | N. Govind, M. Gibson, P. Tulip, V. Cocula,      |
 | B. Montanari, D. Quigley, M. Glover,            |
 | L. Bernasconi, A. Perlov, M. Plummer,           |
 | E. McNellis, J. Meyer, J. Gale, D. Jochym       |
 | J. Aarons, B. Walker, R. Gillen, D. Jones       |
 | T. Green, I. J. Bush, C. J. Armstrong,          |
 | E. J. Higgins, E. L. Brown, M. S. McFly,        |
 | J. Wilkins, B-C. Shih, P. J. P. Byrne,          |
 | R. J. Maurer, J. C. Womack, J. Dziedzic,        |
 | L. LeBlanc, T. K. Stenczel, J. Kermode,         |
 | S. Sturniolo, B. Shi, B. Durham, M. Evans,      |
 | M. J. Smith, A. Tamerus, Z. Hawkhead,           |
 | V. Ravindran, T. Hollins, S. A. Joyce,          |
 | R. T. Strong, A. M. Reilly, S. J. Donaldson     |
 |                                                 |
 | Copyright (c) 2000 - 2023                       |
 |                                                 |
 |     Distributed under license from Cambridge    |
 |     Enterprise for academic use only.           |
 |                                                 |
 | Please cite                                     |
 |                                                 |
 |     "First principles methods using CASTEP"     |
 |                                                 |
 |         Zeitschrift fuer Kristallographie       |
 |           220(5-6) pp. 567-570 (2005)           |
 |                                                 |
 | S. J. Clark, M. D. Segall, C. J. Pickard,       |
 | P. J. Hasnip, M. J. Probert, K. Refson,         |
 | M. C. Payne                                     |
 |                                                 |
 |       in all publications arising from          |
 |              your use of CASTEP                 |
 |                                                 |
 +-------------------------------------------------+
 |                                                 |
 |              http://www.castep.org              |
 |                                                 |
 +-------------------------------------------------+



 Compiled for  GNU 11.2.0 on 04-04-2024 18:39:17
 from code version 6355fd106 Castep241_branch Thu Mar 7 17:56:19 2024 +0000
 Compiler: GNU Fortran 11.2.0; Optimisation: FAST
 Comms   : MPI VERSION : CRAY MPICH version 8.1.23.14 (ANL base 3.4a2)
 MATHLIBS: default (LAPACK version 3.10.1)
 FFT Lib : fftw3 version commercial-fftw-3.3.10-sse2-avx-avx2-avx2_128
 Fundamental constants values: CODATA 2018

 Run started: Tue, 29 Apr 2025 16:20:42 +0100

 Atomic calculation performed for P: 1s2 2s2 2p6 3s2 3p3

 Converged in 47 iterations to an ae energy of -9309.074 eV

   ============================================================                
   | Pseudopotential Report - Date of generation 29-04-2025   |                
   ------------------------------------------------------------                
   | Element: P Ionic charge:  5.00 Level of theory: RSCAN    |                
   | Atomic Solver: Koelling-Harmon                           |                
   |                                                          |                
   |               Reference Electronic Structure             |                
   |         Orbital         Occupation         Energy        |                
   |            3s              2.000           -0.535        |                
   |            3p              3.000           -0.209        |                
   |                                                          |                
   |                 Pseudopotential Definition               |                
   |        Beta     l      e      Rc     scheme   norm       |                
   |          1      0   -0.535   1.807     qc      0         |                
   |          2      0    0.250   1.807     qc      0         |                
   |          3      1   -0.209   1.807     qc      0         |                
   |          4      1    0.250   1.807     qc      0         |                
   |          5      2    0.000   1.807     qc      0         |                
   |          6      2    0.250   1.807     qc      0         |                
   |         loc     3    0.000   1.807     pn      0         |                
   |                                                          |                
   | Augmentation charge Rinner = 1.263                       |                
   | Partial core correction Rc = 1.263                       |                
   ------------------------------------------------------------                
   | "3|1.8|4|4|5|30:31:32"                                   |                
   ------------------------------------------------------------                
   |      Author: Chris J. Pickard, Cambridge University      |                
   ============================================================                
 Warning: otfg_output_psp cannot write out meta-GGA pseudopotentials presently.

 Atomic calculation performed for In:
 1s2 2s2 2p6 3s2 3p6 3d10 4s2 4p6 4d10 5s2 5p1

 Converged in 84 iterations to an ae energy of -160093.328 eV

   ============================================================                
   | Pseudopotential Report - Date of generation 29-04-2025   |                
   ------------------------------------------------------------                
   | Element: In Ionic charge: 13.00 Level of theory: RSCAN   |                
   | Atomic Solver: Koelling-Harmon                           |                
   |                                                          |                
   |               Reference Electronic Structure             |                
   |         Orbital         Occupation         Energy        |                
   |            4d             10.000           -0.711        |                
   |            5s              2.000           -0.313        |                
   |            5p              1.000           -0.095        |                
   |                                                          |                
   |                 Pseudopotential Definition               |                
   |        Beta     l      e      Rc     scheme   norm       |                
   |          1      0   -0.313   2.501     qc      0         |                
   |          2      0    0.250   2.501     qc      0         |                
   |          3      1   -0.095   2.501     qc      0         |                
   |          4      1    0.250   2.501     qc      0         |                
   |          5      2   -0.711   2.207     qc      0         |                
   |          6      2    0.250   2.207     qc      0         |                
   |         loc     3    0.000   2.501     pn      0         |                
   |                                                          |                
   | Augmentation charge Rinner = 1.504                       |                
   | Partial core correction Rc = 1.504                       |                
   ------------------------------------------------------------                
   | "3|2.5|2.5|1.5|7|8|9|50:51:42U2.2U2.2"                   |                
   ------------------------------------------------------------                
   |      Author: Chris J. Pickard, Cambridge University      |                
   ============================================================                
 Warning: otfg_output_psp cannot write out meta-GGA pseudopotentials presently.

 Pseudo atomic calculation performed for P 3s2 3p3

 Converged in 23 iterations to a total energy of -208.0292 eV

 Pseudo atomic calculation performed for In 4d10 5s2 5p1

 Converged in 42 iterations to a total energy of -1747.4501 eV
 Calculation parallelised over 108 processes.
 Data is distributed by G-vector(3-way) and k-point(36-way)
 Each process may use up to 16 threads.

 ************************************ Title ************************************
 

 ***************************** General Parameters ******************************
  
 output verbosity                               : normal  (1)
 write checkpoint data to                       : In_Vacancy_Migration_15->60_Singlepoints_2.check
 type of calculation                            : single point energy
 stress calculation                             : off
 density difference calculation                 : off
 electron localisation func (ELF) calculation   : off
 Hirshfeld analysis                             : on
 polarisation (Berry phase) analysis            : off
 molecular orbital projected DOS                : off
 deltaSCF calculation                           : off
 unlimited duration calculation
 timing information                             : on
 memory usage estimate                          : on
 write extra output files                       : on
 write final potential to formatted file        : off
 write final density to formatted file          : off
 write BibTeX reference list                    : on
 write OTFG pseudopotential files               : on
 write electrostatic potential file             : on
 write bands file                               : on
 checkpoint writing                             : off
  
 output         length unit                     : A
 output           mass unit                     : amu
 output           time unit                     : ps
 output         charge unit                     : e
 output           spin unit                     : hbar/2
 output         energy unit                     : eV
 output          force unit                     : eV/A
 output       velocity unit                     : A/ps
 output       pressure unit                     : GPa
 output     inv_length unit                     : 1/A
 output      frequency unit                     : cm-1
 output force constant unit                     : eV/A**2
 output         volume unit                     : A**3
 output   IR intensity unit                     : (D/A)**2/amu
 output         dipole unit                     : D
 output         efield unit                     : eV/A/e
 output        entropy unit                     : J/mol/K
 output    efield chi2 unit                     : pm/V
  
 wavefunctions paging                           : none
 random number generator seed                   :  162043016
 data distribution                              : optimal for this architecture
 optimization strategy                          : balance speed and memory

 *********************** Exchange-Correlation Parameters ***********************
  
 using functional                               : RSCAN
 relativistic treatment                         : Koelling-Harmon
 DFT+D: Semi-empirical dispersion correction    : off

 ************************* Pseudopotential Parameters **************************
  
 pseudopotential representation                 : reciprocal space
 <beta|phi> representation                      : reciprocal space
 spin-orbit coupling                            : off

 **************************** Basis Set Parameters *****************************
  
 plane wave basis set cut-off                   :   900.0000   eV
 size of standard grid                          :     2.0000
 size of   fine   gmax                          :    30.7390   1/A
 finite basis set correction                    : none

 **************************** Electronic Parameters ****************************
  
 number of  electrons                           :  563.0    
 net charge of system                           :  0.000    
 net spin   of system                           :  1.000    
 number of  up  spins                           :  282.0    
 number of down spins                           :  281.0    
 treating system as spin-polarized
 number of bands                                :        338

 ********************* Electronic Minimization Parameters **********************
  
 Method: Treating system as metallic with density mixing treatment of electrons,
         and number of  SD  steps               :          1
         and number of  CG  steps               :          4
  
 total energy / atom convergence tol.           : 0.1000E-07   eV
 eigen-energy convergence tolerance             : 0.2234E-08   eV
 max force / atom convergence tol.              : ignored
 convergence tolerance window                   :          3   cycles
 max. number of SCF cycles                      :        100
 number of fixed-spin iterations                :         10
 smearing scheme                                : Gaussian
 smearing width                                 : 0.2000       eV
 Fermi energy convergence tolerance             : 0.2721E-13   eV
 periodic dipole correction                     : NONE

 ************************** Density Mixing Parameters **************************
  
 density-mixing scheme                          : Pulay
 max. length of mixing history                  :         20
 charge density mixing amplitude                : 0.5000    
   spin density mixing amplitude                :  2.000    
 cut-off energy for mixing                      :  900.0       eV

 *********************** Population Analysis Parameters ************************
  
 Population analysis with cutoff                :  3.000       A
 Population analysis output                     : summary and pdos components

 *******************************************************************************
  

                           -------------------------------
                                      Unit Cell
                           -------------------------------
        Real Lattice(A)                      Reciprocal Lattice(1/A)
    11.8016820    -0.0000080    -0.0000080        0.532397442   0.000000361   0.000000361
    -0.0000080    11.8016820    -0.0000080        0.000000361   0.532397442   0.000000361
    -0.0000080    -0.0000080    11.8016820        0.000000361   0.000000361   0.532397442

                       Lattice parameters(A)       Cell Angles
                    a =     11.801682          alpha =   90.000078
                    b =     11.801682          beta  =   90.000078
                    c =     11.801682          gamma =   90.000078

                       Current cell volume =          1643.734705       A**3
                                   density =             2.768402   AMU/A**3
                                           =             4.597040     g/cm^3

                           -------------------------------
                                     Cell Contents
                           -------------------------------
                         Total number of ions in cell =   63
                      Total number of species in cell =    2
                        Max number of any one species =   32

            xxxxxxxxxxxxxxxxxxxxxxxxxxxxxxxxxxxxxxxxxxxxxxxxxxxxxxxxxxxx
            x  Element    Atom        Fractional coordinates of atoms  x
            x            Number           u          v          w      x
            x----------------------------------------------------------x
            x  P            1         0.136477   0.136477   0.390404   x 
            x  P            2         0.375548   0.127499   0.133096   x 
            x  P            3         0.127499   0.375548   0.133096   x 
            x  P            4         0.427074   0.427074   0.364642   x 
            x  P            5         0.128654   0.128654   0.875446   x 
            x  P            6         0.382549   0.137282   0.621227   x 
            x  P            7         0.137282   0.382549   0.621227   x 
            x  P            8         0.374647   0.374647   0.874654   x 
            x  P            9         0.128013   0.629389   0.372937   x 
            x  P           10         0.375426   0.631872   0.113915   x 
            x  P           11         0.126336   0.878866   0.125628   x 
            x  P           12         0.373867   0.874645   0.376984   x 
            x  P           13         0.117742   0.630392   0.882305   x 
            x  P           14         0.376552   0.613764   0.620786   x 
            x  P           15         0.123121   0.877314   0.624984   x 
            x  P           16         0.376421   0.882620   0.866831   x 
            x  P           17         0.629389   0.128013   0.372937   x 
            x  P           18         0.878866   0.126336   0.125628   x 
            x  P           19         0.631872   0.375426   0.113915   x 
            x  P           20         0.874645   0.373867   0.376984   x 
            x  P           21         0.630392   0.117742   0.882305   x 
            x  P           22         0.877314   0.123121   0.624984   x 
            x  P           23         0.613764   0.376552   0.620786   x 
            x  P           24         0.882620   0.376421   0.866831   x 
            x  P           25         0.587118   0.587118   0.383727   x 
            x  P           26         0.869287   0.623002   0.130630   x 
            x  P           27         0.623002   0.869287   0.130630   x 
            x  P           28         0.868585   0.868585   0.375819   x 
            x  P           29         0.625843   0.625843   0.868501   x 
            x  P           30         0.873564   0.622476   0.620914   x 
            x  P           31         0.622476   0.873564   0.620914   x 
            x  P           32         0.874239   0.874239   0.877030   x 
            x  In           1         0.001736   0.001736  -0.001737   x 
            x  In           2         0.244573   0.004835   0.259631   x 
            x  In           3         0.004835   0.244573   0.259631   x 
            x  In           4         0.252795   0.252795   0.004899   x 
            x  In           5         0.000203   0.000203   0.492965   x 
            x  In           6         0.250461   0.010026   0.741249   x 
            x  In           7         0.010026   0.250461   0.741249   x 
            x  In           8         0.314460   0.314460   0.513261   x 
            x  In           9        -0.002540   0.497655   0.007438   x 
            x  In          10         0.257702   0.509132   0.246982   x 
            x  In          11        -0.000422   0.751628   0.248155   x 
            x  In          12         0.251306   0.759912  -0.006764   x 
            x  In          13         0.004192   0.500945   0.496163   x 
            x  In          14         0.246562   0.510197   0.758669   x 
            x  In          15        -0.004233   0.750510   0.747964   x 
            x  In          16         0.253361   0.748202   0.507287   x 
            x  In          17         0.497655  -0.002540   0.007438   x 
            x  In          18         0.751628  -0.000422   0.248155   x 
            x  In          19         0.509132   0.257702   0.246982   x 
            x  In          20         0.759912   0.251306  -0.006764   x 
            x  In          21         0.500945   0.004192   0.496163   x 
            x  In          22         0.750510  -0.004233   0.747964   x 
            x  In          23         0.510197   0.246562   0.758669   x 
            x  In          24         0.748202   0.253361   0.507287   x 
            x  In          25         0.501525   0.501525  -0.005955   x 
            x  In          26         0.741561   0.496791   0.256289   x 
            x  In          27         0.496791   0.741561   0.256289   x 
            x  In          28         0.747372   0.747372   0.000119   x 
            x  In          29         0.746027   0.495161   0.741880   x 
            x  In          30         0.495161   0.746026   0.741880   x 
            x  In          31         0.733010   0.733010   0.495867   x 
            xxxxxxxxxxxxxxxxxxxxxxxxxxxxxxxxxxxxxxxxxxxxxxxxxxxxxxxxxxxx


                         No user defined ionic velocities

                           -------------------------------
                                   Details of Species
                           -------------------------------

                               Mass of species in AMU
                                    P   30.9737600
                                    In  114.8180000

                          Electric Quadrupole Moment (Barn)
                                    P    1.0000000 No Isotope Defined
                                    In    0.7700000 Isotope115

                          Files used for pseudopotentials:
                                    P 3|1.8|4|4|5|30:31:32
                                    In 3|2.5|2.5|1.5|7|8|9|50:51:42U2.2U2.2

                           -------------------------------
                              k-Points For BZ Sampling
                           -------------------------------
                       MP grid size for SCF calculation is  4  4  4
                            with an offset of   0.125  0.125  0.125
                       Number of kpoints used =            36

                           -------------------------------
                               Symmetry and Constraints
                           -------------------------------

                      Maximum deviation from symmetry =  0.00000         ANG

                      Number of symmetry operations   =           1
                      Number of ionic constraints     =           3
                      Point group of crystal =     1: C1, 1, 1
                      Space group of crystal =     8: Cm, C -2y

             Set iprint > 1 for details on symmetry rotations/translations

                         Centre of mass is constrained
             Set iprint > 1 for details of linear ionic constraints

                         Number of cell constraints= 0
                         Cell constraints are:  1 2 3 4 5 6

                         External pressure/stress (GPa)
                          0.00000   0.00000   0.00000
                                    0.00000   0.00000
                                              0.00000
 
+---------------- MEMORY AND SCRATCH DISK ESTIMATES PER PROCESS --------------+
|                                                     Memory          Disk    |
| Baseline code, static data and system overhead      368.0 MB         0.0 MB |
| BLAS internal memory storage                          0.0 MB         0.0 MB |
| Model and support data                             4296.9 MB         0.0 MB |
| Electronic energy minimisation requirements        1299.4 MB         0.0 MB |
| Force calculation requirements                      127.4 MB         0.0 MB |
|                                               ----------------------------- |
| Approx. total storage required per process         5964.3 MB         0.0 MB |
|                                                                             |
| Requirements will fluctuate during execution and may exceed these estimates |
+-----------------------------------------------------------------------------+
Calculating approximate eigenstates for fixed initial Hamiltonian
Cut-off for approx. calculation is   89.988 eV
Improving approx. states at cut-off of  450.000 eV
Resetting cut-off to  900.000 eV
Calculating total energy with cut-off of  900.000 eV.
------------------------------------------------------------------------ <-- SCF
SCF loop      Energy           Fermi           Energy gain       Timer   <-- SCF
                               energy          per atom          (sec)   <-- SCF
------------------------------------------------------------------------ <-- SCF
Initial  -6.12899027E+004  0.00000000E+000                       438.78  <-- SCF
      1  -6.10532623E+004  2.05244676E+000  -3.75619681E+000     867.35  <-- SCF
      2  -6.10536543E+004  2.05241472E+000   6.22314532E-003    1170.77  <-- SCF
      3  -6.11172407E+004  2.35897227E+000   1.00930709E+000    1517.67  <-- SCF
      4  -6.11286655E+004  2.42446055E+000   1.81346803E-001    1992.28  <-- SCF
      5  -6.11352331E+004  2.51341216E+000   1.04246782E-001    2329.33  <-- SCF
      6  -6.11233823E+004  2.64806968E+000  -1.88108338E-001    2664.60  <-- SCF
      7  -6.11218592E+004  2.69092280E+000  -2.41762106E-002    3010.23  <-- SCF
      8  -6.11220933E+004  2.72435246E+000   3.71713284E-003    3358.57  <-- SCF
      9  -6.11228982E+004  2.74763869E+000   1.27759454E-002    3716.06  <-- SCF
     10  -6.11232364E+004  2.73471046E+000   5.36734245E-003    4056.75  <-- SCF
     11  -6.11232866E+004  2.72875131E+000   7.97801559E-004    4413.42  <-- SCF
     12  -6.11233039E+004  2.72576219E+000   2.73899739E-004    4771.02  <-- SCF
     13  -6.11233098E+004  2.72345454E+000   9.34590841E-005    5122.70  <-- SCF
     14  -6.11233105E+004  2.72239536E+000   1.17403183E-005    5496.84  <-- SCF
     15  -6.11233113E+004  2.72171742E+000   1.25775932E-005    5856.73  <-- SCF
     16  -6.11233116E+004  2.72170706E+000   4.62012797E-006    6184.80  <-- SCF
     17  -6.11233121E+004  2.72153275E+000   7.61644179E-006    6530.72  <-- SCF
     18  -6.11233123E+004  2.72139482E+000   4.05567539E-006    6872.63  <-- SCF
     19  -6.11233124E+004  2.72137552E+000   1.26226935E-006    7207.90  <-- SCF
     20  -6.11233124E+004  2.72130621E+000   6.39333633E-007    7520.75  <-- SCF
     21  -6.11233125E+004  2.72131507E+000   2.13346388E-007    7829.18  <-- SCF
     22  -6.11233125E+004  2.72134811E+000   3.38564935E-008    8116.45  <-- SCF
     23  -6.11233125E+004  2.72132839E+000   9.48559285E-009    8359.89  <-- SCF
     24  -6.11233125E+004  2.72130349E+000   8.34715672E-009    8602.83  <-- SCF
     25  -6.11233125E+004  2.72130086E+000   2.46955789E-009    8839.97  <-- SCF
     26  -6.11233125E+004  2.72130058E+000  -2.74297112E-009    9079.47  <-- SCF
------------------------------------------------------------------------ <-- SCF
 
Integrated Spin Density     =    0.374002E-03 hbar/2
Integrated |Spin Density|   =    0.100549E-02 hbar/2
 
Final energy, E             =  -61123.11968816     eV
Final free energy (E-TS)    =  -61123.31245750     eV
(energies not corrected for finite basis set)
 
NB est. 0K energy (E-0.5TS)      =  -61123.21607283     eV
 

 ************************** Forces **************************
 *                                                          *
 *               Cartesian components (eV/A)                *
 * -------------------------------------------------------- *
 *                         x            y            z      *
 *                                                          *
 * P               1      0.09763      0.09763     -0.02785 *
 * P               2     -0.06000      0.05565      0.00021 *
 * P               3      0.05565     -0.05999      0.00021 *
 * P               4      0.03254      0.03254      0.09258 *
 * P               5     -0.00239     -0.00239     -0.00031 *
 * P               6      0.01539     -0.08903     -0.01183 *
 * P               7     -0.08903      0.01539     -0.01183 *
 * P               8     -0.02124     -0.02124      0.02597 *
 * P               9      0.03661     -0.02858      0.04390 *
 * P              10      0.00873     -0.02363      0.03863 *
 * P              11      0.01347      0.03193      0.02078 *
 * P              12      0.00377      0.00102      0.03840 *
 * P              13     -0.00683     -0.03245     -0.04637 *
 * P              14      0.10314      0.10548      0.10915 *
 * P              15     -0.01317     -0.01478      0.00267 *
 * P              16      0.00519      0.02228      0.07068 *
 * P              17     -0.02858      0.03661      0.04390 *
 * P              18      0.03193      0.01347      0.02078 *
 * P              19     -0.02363      0.00873      0.03864 *
 * P              20      0.00102      0.00377      0.03840 *
 * P              21     -0.03245     -0.00683     -0.04637 *
 * P              22     -0.01478     -0.01317      0.00266 *
 * P              23      0.10549      0.10314      0.10915 *
 * P              24      0.02228      0.00519      0.07068 *
 * P              25     -0.06279     -0.06279     -0.19836 *
 * P              26     -0.00274      0.05219      0.01533 *
 * P              27      0.05219     -0.00274      0.01533 *
 * P              28     -0.10806     -0.10806     -0.05405 *
 * P              29      0.04890      0.04889      0.06145 *
 * P              30     -0.04910     -0.01003     -0.08951 *
 * P              31     -0.01002     -0.04911     -0.08951 *
 * P              32     -0.02443     -0.02443      0.00725 *
 * In              1      0.00828      0.00828      0.01503 *
 * In              2      0.06089      0.02527     -0.06505 *
 * In              3      0.02527      0.06089     -0.06505 *
 * In              4      0.00528      0.00528     -0.04128 *
 * In              5      0.08695      0.08696      0.16015 *
 * In              6     -0.03221     -0.02265      0.04481 *
 * In              7     -0.02265     -0.03221      0.04482 *
 * In              8     -0.51776     -0.51776      0.11677 *
 * In              9      0.03501      0.05123     -0.08259 *
 * In             10     -0.03607      0.11084     -0.05392 *
 * In             11     -0.02242     -0.03801     -0.00563 *
 * In             12     -0.11238      0.02223      0.05456 *
 * In             13     -0.00580      0.01135     -0.05479 *
 * In             14      0.19941      0.01911     -0.11700 *
 * In             15      0.07044      0.04476      0.00790 *
 * In             16      0.01684     -0.05369     -0.05459 *
 * In             17      0.05123      0.03501     -0.08259 *
 * In             18     -0.03801     -0.02242     -0.00563 *
 * In             19      0.11084     -0.03607     -0.05392 *
 * In             20      0.02223     -0.11238      0.05457 *
 * In             21      0.01134     -0.00581     -0.05480 *
 * In             22      0.04476      0.07044      0.00790 *
 * In             23      0.01911      0.19940     -0.11700 *
 * In             24     -0.05369      0.01684     -0.05459 *
 * In             25      0.01030      0.01030      0.03100 *
 * In             26      0.01529     -0.05768     -0.11117 *
 * In             27     -0.05768      0.01529     -0.11117 *
 * In             28     -0.01101     -0.01101     -0.00459 *
 * In             29     -0.06794     -0.08935      0.04106 *
 * In             30     -0.08935     -0.06793      0.04106 *
 * In             31      0.18880      0.18881      0.22494 *
 *                                                          *
 ************************************************************

 Pseudo atomic calculation performed for P 3s2 3p3

 Converged in 23 iterations to a total energy of -208.0292 eV

 Pseudo atomic calculation performed for In 4d10 5s2 5p1

 Converged in 42 iterations to a total energy of -1747.4501 eV
Charge spilling parameter for spin component 1 = 0.17%
Charge spilling parameter for spin component 2 = 0.17%

                   Orbital Populations                  
  ---------------------------------------------------------------
     Ion    Atom   Orbital              Up        Down      Spin
  ---------------------------------------------------------------
      P     1      S                    0.895     0.895    -0.000
      P     1      Px                   0.631     0.631    -0.000
      P     1      Py                   0.631     0.631    -0.000
      P     1      Pz                   0.648     0.648     0.000
      P     2      S                    0.874     0.874     0.000
      P     2      Px                   0.654     0.654     0.000
      P     2      Py                   0.647     0.647    -0.000
      P     2      Pz                   0.651     0.651    -0.000
      P     3      S                    0.874     0.874     0.000
      P     3      Px                   0.647     0.647    -0.000
      P     3      Py                   0.654     0.654     0.000
      P     3      Pz                   0.651     0.651    -0.000
      P     4      S                    0.901     0.901     0.000
      P     4      Px                   0.592     0.592     0.000
      P     4      Py                   0.592     0.592     0.000
      P     4      Pz                   0.622     0.622     0.000
      P     5      S                    0.870     0.870    -0.000
      P     5      Px                   0.656     0.656    -0.000
      P     5      Py                   0.656     0.656    -0.000
      P     5      Pz                   0.650     0.650    -0.000
      P     6      S                    0.873     0.873    -0.000
      P     6      Px                   0.666     0.666    -0.000
      P     6      Py                   0.634     0.634    -0.000
      P     6      Pz                   0.652     0.652     0.000
      P     7      S                    0.873     0.873    -0.000
      P     7      Px                   0.634     0.634    -0.000
      P     7      Py                   0.666     0.666    -0.000
      P     7      Pz                   0.652     0.652     0.000
      P     8      S                    0.870     0.870    -0.000
      P     8      Px                   0.651     0.651    -0.000
      P     8      Py                   0.651     0.651    -0.000
      P     8      Pz                   0.658     0.658    -0.000
      P     9      S                    0.869     0.869    -0.000
      P     9      Px                   0.654     0.654    -0.000
      P     9      Py                   0.656     0.656     0.000
      P     9      Pz                   0.653     0.653     0.000
      P    10      S                    0.868     0.868     0.000
      P    10      Px                   0.658     0.658     0.000
      P    10      Py                   0.657     0.657     0.000
      P    10      Pz                   0.650     0.650     0.000
      P    11      S                    0.871     0.871    -0.000
      P    11      Px                   0.654     0.654    -0.000
      P    11      Py                   0.655     0.655    -0.000
      P    11      Pz                   0.650     0.650    -0.000
      P    12      S                    0.870     0.870    -0.000
      P    12      Px                   0.653     0.653     0.000
      P    12      Py                   0.652     0.652    -0.000
      P    12      Pz                   0.656     0.656    -0.000
      P    13      S                    0.872     0.872    -0.000
      P    13      Px                   0.649     0.649     0.000
      P    13      Py                   0.655     0.655    -0.000
      P    13      Pz                   0.653     0.653     0.000
      P    14      S                    0.900     0.900     0.000
      P    14      Px                   0.624     0.624     0.000
      P    14      Py                   0.630     0.629     0.000
      P    14      Pz                   0.632     0.632     0.000
      P    15      S                    0.873     0.873    -0.000
      P    15      Px                   0.648     0.647     0.000
      P    15      Py                   0.649     0.649     0.000
      P    15      Pz                   0.658     0.658    -0.000
      P    16      S                    0.874     0.874    -0.000
      P    16      Px                   0.657     0.657     0.000
      P    16      Py                   0.650     0.650     0.000
      P    16      Pz                   0.645     0.645     0.000
      P    17      S                    0.869     0.869     0.000
      P    17      Px                   0.656     0.656     0.000
      P    17      Py                   0.654     0.654    -0.000
      P    17      Pz                   0.653     0.653     0.000
      P    18      S                    0.871     0.871     0.000
      P    18      Px                   0.655     0.655    -0.000
      P    18      Py                   0.654     0.654    -0.000
      P    18      Pz                   0.650     0.650    -0.000
      P    19      S                    0.868     0.868     0.000
      P    19      Px                   0.657     0.657    -0.000
      P    19      Py                   0.658     0.658     0.000
      P    19      Pz                   0.650     0.650     0.000
      P    20      S                    0.870     0.870    -0.000
      P    20      Px                   0.652     0.652    -0.000
      P    20      Py                   0.653     0.653     0.000
      P    20      Pz                   0.656     0.656    -0.000
      P    21      S                    0.872     0.872    -0.000
      P    21      Px                   0.655     0.655    -0.000
      P    21      Py                   0.649     0.649     0.000
      P    21      Pz                   0.653     0.653     0.000
      P    22      S                    0.873     0.873    -0.000
      P    22      Px                   0.649     0.649     0.000
      P    22      Py                   0.648     0.647     0.000
      P    22      Pz                   0.658     0.658    -0.000
      P    23      S                    0.900     0.900     0.000
      P    23      Px                   0.630     0.629     0.000
      P    23      Py                   0.624     0.624     0.000
      P    23      Pz                   0.632     0.632     0.000
      P    24      S                    0.874     0.874    -0.000
      P    24      Px                   0.650     0.650    -0.000
      P    24      Py                   0.657     0.657     0.000
      P    24      Pz                   0.645     0.645     0.000
      P    25      S                    0.908     0.908     0.000
      P    25      Px                   0.569     0.569     0.000
      P    25      Py                   0.569     0.569     0.000
      P    25      Pz                   0.666     0.666     0.000
      P    26      S                    0.873     0.873    -0.000
      P    26      Px                   0.649     0.649    -0.000
      P    26      Py                   0.654     0.654    -0.000
      P    26      Pz                   0.651     0.651    -0.000
      P    27      S                    0.873     0.873    -0.000
      P    27      Px                   0.654     0.654    -0.000
      P    27      Py                   0.649     0.649     0.000
      P    27      Pz                   0.651     0.651    -0.000
      P    28      S                    0.879     0.879    -0.000
      P    28      Px                   0.641     0.641     0.000
      P    28      Py                   0.641     0.641     0.000
      P    28      Pz                   0.661     0.661     0.000
      P    29      S                    0.869     0.869    -0.000
      P    29      Px                   0.655     0.655    -0.000
      P    29      Py                   0.655     0.655    -0.000
      P    29      Pz                   0.654     0.654    -0.000
      P    30      S                    0.872     0.872    -0.000
      P    30      Px                   0.647     0.647     0.000
      P    30      Py                   0.662     0.662     0.000
      P    30      Pz                   0.651     0.651     0.000
      P    31      S                    0.872     0.872    -0.000
      P    31      Px                   0.662     0.662     0.000
      P    31      Py                   0.647     0.647     0.000
      P    31      Pz                   0.651     0.651    -0.000
      P    32      S                    0.870     0.870    -0.000
      P    32      Px                   0.655     0.655     0.000
      P    32      Py                   0.655     0.655     0.000
      P    32      Pz                   0.653     0.653    -0.000
     In     1      Dzz                  1.000     1.000    -0.000
     In     1      Dzy                  0.998     0.998     0.000
     In     1      Dzx                  0.998     0.998     0.000
     In     1      Dxx-yy               1.000     1.000    -0.000
     In     1      Dxy                  0.998     0.998     0.000
     In     1      S                    0.704     0.704    -0.000
     In     1      Px                   0.239     0.239     0.000
     In     1      Py                   0.239     0.239     0.000
     In     1      Pz                   0.240     0.240     0.000
     In     1      S                   -0.235    -0.235    -0.000
     In     2      Dzz                  1.000     1.000     0.000
     In     2      Dzy                  0.998     0.998    -0.000
     In     2      Dzx                  0.999     0.999     0.000
     In     2      Dxx-yy               1.000     1.000     0.000
     In     2      Dxy                  0.999     0.999    -0.000
     In     2      S                    0.705     0.705    -0.000
     In     2      Px                   0.243     0.243    -0.000
     In     2      Py                   0.242     0.242    -0.000
     In     2      Pz                   0.239     0.239     0.000
     In     2      S                   -0.253    -0.253    -0.000
     In     3      Dzz                  1.000     1.000     0.000
     In     3      Dzy                  0.999     0.999     0.000
     In     3      Dzx                  0.998     0.998    -0.000
     In     3      Dxx-yy               1.000     1.000     0.000
     In     3      Dxy                  0.999     0.999     0.000
     In     3      S                    0.705     0.705     0.000
     In     3      Px                   0.242     0.242    -0.000
     In     3      Py                   0.243     0.243    -0.000
     In     3      Pz                   0.239     0.239     0.000
     In     3      S                   -0.253    -0.253     0.000
     In     4      Dzz                  1.000     1.000    -0.000
     In     4      Dzy                  0.998     0.998     0.000
     In     4      Dzx                  0.998     0.998     0.000
     In     4      Dxx-yy               1.000     1.000    -0.000
     In     4      Dxy                  0.999     0.999    -0.000
     In     4      S                    0.708     0.708    -0.000
     In     4      Px                   0.240     0.240    -0.000
     In     4      Py                   0.240     0.240    -0.000
     In     4      Pz                   0.241     0.241     0.000
     In     4      S                   -0.268    -0.268     0.000
     In     5      Dzz                  1.000     1.000    -0.000
     In     5      Dzy                  0.999     0.999     0.000
     In     5      Dzx                  0.999     0.999     0.000
     In     5      Dxx-yy               1.000     1.000    -0.000
     In     5      Dxy                  0.999     0.999     0.000
     In     5      S                    0.705     0.705     0.000
     In     5      Px                   0.240     0.240    -0.000
     In     5      Py                   0.240     0.240    -0.000
     In     5      Pz                   0.239     0.239     0.000
     In     5      S                   -0.231    -0.231     0.000
     In     6      Dzz                  1.000     1.000     0.000
     In     6      Dzy                  0.999     0.999     0.000
     In     6      Dzx                  0.999     0.999     0.000
     In     6      Dxx-yy               1.000     1.000    -0.000
     In     6      Dxy                  0.999     0.999     0.000
     In     6      S                    0.711     0.711    -0.000
     In     6      Px                   0.235     0.235     0.000
     In     6      Py                   0.238     0.238     0.000
     In     6      Pz                   0.238     0.238     0.000
     In     6      S                   -0.258    -0.258     0.000
     In     7      Dzz                  1.000     1.000     0.000
     In     7      Dzy                  0.999     0.999     0.000
     In     7      Dzx                  0.999     0.999     0.000
     In     7      Dxx-yy               1.000     1.000    -0.000
     In     7      Dxy                  0.999     0.999     0.000
     In     7      S                    0.711     0.711    -0.000
     In     7      Px                   0.238     0.238     0.000
     In     7      Py                   0.235     0.235     0.000
     In     7      Pz                   0.238     0.238    -0.000
     In     7      S                   -0.258    -0.258     0.000
     In     8      Dzz                  1.000     1.000     0.000
     In     8      Dzy                  0.999     0.999    -0.000
     In     8      Dzx                  0.999     0.999    -0.000
     In     8      Dxx-yy               0.999     0.999     0.000
     In     8      Dxy                  0.999     0.999    -0.000
     In     8      S                    0.720     0.720     0.000
     In     8      Px                   0.222     0.222    -0.000
     In     8      Py                   0.222     0.222    -0.000
     In     8      Pz                   0.201     0.201    -0.000
     In     8      S                   -0.230    -0.230     0.000
     In     9      Dzz                  1.000     1.000    -0.000
     In     9      Dzy                  0.998     0.998     0.000
     In     9      Dzx                  0.999     0.999    -0.000
     In     9      Dxx-yy               1.000     1.000    -0.000
     In     9      Dxy                  0.999     0.999    -0.000
     In     9      S                    0.710     0.710     0.000
     In     9      Px                   0.236     0.236     0.000
     In     9      Py                   0.240     0.240    -0.000
     In     9      Pz                   0.239     0.239    -0.000
     In     9      S                   -0.248    -0.248    -0.000
     In    10      Dzz                  1.000     1.000     0.000
     In    10      Dzy                  0.999     0.999    -0.000
     In    10      Dzx                  0.998     0.998     0.000
     In    10      Dxx-yy               0.999     0.999    -0.000
     In    10      Dxy                  0.999     0.999    -0.000
     In    10      S                    0.702     0.702     0.000
     In    10      Px                   0.243     0.243    -0.000
     In    10      Py                   0.241     0.241    -0.000
     In    10      Pz                   0.239     0.239     0.000
     In    10      S                   -0.224    -0.224    -0.000
     In    11      Dzz                  1.000     1.000    -0.000
     In    11      Dzy                  0.999     0.999    -0.000
     In    11      Dzx                  0.998     0.998     0.000
     In    11      Dxx-yy               1.000     1.000    -0.000
     In    11      Dxy                  0.998     0.998     0.000
     In    11      S                    0.706     0.706     0.000
     In    11      Px                   0.243     0.243    -0.000
     In    11      Py                   0.239     0.239    -0.000
     In    11      Pz                   0.238     0.238    -0.000
     In    11      S                   -0.263    -0.263     0.000
     In    12      Dzz                  1.000     1.000    -0.000
     In    12      Dzy                  0.998     0.998    -0.000
     In    12      Dzx                  0.998     0.998    -0.000
     In    12      Dxx-yy               1.000     1.000    -0.000
     In    12      Dxy                  0.998     0.998    -0.000
     In    12      S                    0.705     0.705    -0.000
     In    12      Px                   0.243     0.243    -0.000
     In    12      Py                   0.241     0.241    -0.000
     In    12      Pz                   0.238     0.238    -0.000
     In    12      S                   -0.262    -0.262     0.000
     In    13      Dzz                  1.000     1.000    -0.000
     In    13      Dzy                  0.999     0.999     0.000
     In    13      Dzx                  0.999     0.999     0.000
     In    13      Dxx-yy               1.000     1.000    -0.000
     In    13      Dxy                  0.998     0.998     0.000
     In    13      S                    0.711     0.711     0.000
     In    13      Px                   0.241     0.241     0.000
     In    13      Py                   0.237     0.237    -0.000
     In    13      Pz                   0.238     0.238    -0.000
     In    13      S                   -0.260    -0.260    -0.000
     In    14      Dzz                  1.000     1.000     0.000
     In    14      Dzy                  0.998     0.998     0.000
     In    14      Dzx                  0.998     0.998     0.000
     In    14      Dxx-yy               1.000     1.000    -0.000
     In    14      Dxy                  0.998     0.998     0.000
     In    14      S                    0.696     0.696    -0.000
     In    14      Px                   0.244     0.244     0.000
     In    14      Py                   0.250     0.250    -0.000
     In    14      Pz                   0.241     0.241     0.000
     In    14      S                   -0.226    -0.226     0.000
     In    15      Dzz                  1.000     1.000     0.000
     In    15      Dzy                  0.998     0.998    -0.000
     In    15      Dzx                  0.999     0.999     0.000
     In    15      Dxx-yy               1.000     1.000     0.000
     In    15      Dxy                  0.999     0.999    -0.000
     In    15      S                    0.711     0.711    -0.000
     In    15      Px                   0.237     0.237    -0.000
     In    15      Py                   0.237     0.237     0.000
     In    15      Pz                   0.241     0.241     0.000
     In    15      S                   -0.263    -0.263     0.000
     In    16      Dzz                  1.000     1.000    -0.000
     In    16      Dzy                  0.998     0.998     0.000
     In    16      Dzx                  0.998     0.998     0.000
     In    16      Dxx-yy               1.000     1.000    -0.000
     In    16      Dxy                  0.998     0.998     0.000
     In    16      S                    0.706     0.706    -0.000
     In    16      Px                   0.238     0.238    -0.000
     In    16      Py                   0.240     0.240    -0.000
     In    16      Pz                   0.248     0.248     0.000
     In    16      S                   -0.242    -0.242    -0.000
     In    17      Dzz                  1.000     1.000    -0.000
     In    17      Dzy                  0.999     0.999     0.000
     In    17      Dzx                  0.998     0.998     0.000
     In    17      Dxx-yy               1.000     1.000    -0.000
     In    17      Dxy                  0.999     0.999    -0.000
     In    17      S                    0.710     0.710     0.000
     In    17      Px                   0.240     0.240    -0.000
     In    17      Py                   0.236     0.236     0.000
     In    17      Pz                   0.239     0.239     0.000
     In    17      S                   -0.248    -0.248    -0.000
     In    18      Dzz                  1.000     1.000    -0.000
     In    18      Dzy                  0.998     0.998     0.000
     In    18      Dzx                  0.999     0.999    -0.000
     In    18      Dxx-yy               1.000     1.000    -0.000
     In    18      Dxy                  0.998     0.998     0.000
     In    18      S                    0.706     0.706     0.000
     In    18      Px                   0.239     0.239    -0.000
     In    18      Py                   0.243     0.243    -0.000
     In    18      Pz                   0.238     0.238    -0.000
     In    18      S                   -0.263    -0.263     0.000
     In    19      Dzz                  1.000     1.000     0.000
     In    19      Dzy                  0.998     0.998     0.000
     In    19      Dzx                  0.999     0.999    -0.000
     In    19      Dxx-yy               0.999     0.999    -0.000
     In    19      Dxy                  0.999     0.999    -0.000
     In    19      S                    0.702     0.702     0.000
     In    19      Px                   0.241     0.241    -0.000
     In    19      Py                   0.243     0.243    -0.000
     In    19      Pz                   0.239     0.239     0.000
     In    19      S                   -0.224    -0.224    -0.000
     In    20      Dzz                  1.000     1.000     0.000
     In    20      Dzy                  0.998     0.998    -0.000
     In    20      Dzx                  0.998     0.998    -0.000
     In    20      Dxx-yy               1.000     1.000    -0.000
     In    20      Dxy                  0.998     0.998    -0.000
     In    20      S                    0.705     0.705    -0.000
     In    20      Px                   0.241     0.241    -0.000
     In    20      Py                   0.243     0.243     0.000
     In    20      Pz                   0.238     0.238    -0.000
     In    20      S                   -0.262    -0.262     0.000
     In    21      Dzz                  1.000     1.000    -0.000
     In    21      Dzy                  0.999     0.999     0.000
     In    21      Dzx                  0.999     0.999     0.000
     In    21      Dxx-yy               1.000     1.000    -0.000
     In    21      Dxy                  0.998     0.998     0.000
     In    21      S                    0.711     0.711     0.000
     In    21      Px                   0.237     0.237     0.000
     In    21      Py                   0.241     0.241     0.000
     In    21      Pz                   0.238     0.238    -0.000
     In    21      S                   -0.260    -0.260    -0.000
     In    22      Dzz                  1.000     1.000     0.000
     In    22      Dzy                  0.999     0.999     0.000
     In    22      Dzx                  0.998     0.998    -0.000
     In    22      Dxx-yy               1.000     1.000     0.000
     In    22      Dxy                  0.999     0.999    -0.000
     In    22      S                    0.711     0.711    -0.000
     In    22      Px                   0.237     0.237     0.000
     In    22      Py                   0.237     0.237    -0.000
     In    22      Pz                   0.241     0.241     0.000
     In    22      S                   -0.263    -0.263     0.000
     In    23      Dzz                  1.000     1.000    -0.000
     In    23      Dzy                  0.998     0.998     0.000
     In    23      Dzx                  0.998     0.998     0.000
     In    23      Dxx-yy               1.000     1.000    -0.000
     In    23      Dxy                  0.998     0.998     0.000
     In    23      S                    0.696     0.696    -0.000
     In    23      Px                   0.250     0.250    -0.000
     In    23      Py                   0.244     0.244     0.000
     In    23      Pz                   0.241     0.241     0.000
     In    23      S                   -0.226    -0.226     0.000
     In    24      Dzz                  1.000     1.000    -0.000
     In    24      Dzy                  0.998     0.998     0.000
     In    24      Dzx                  0.998     0.998     0.000
     In    24      Dxx-yy               1.000     1.000    -0.000
     In    24      Dxy                  0.998     0.998     0.000
     In    24      S                    0.706     0.706     0.000
     In    24      Px                   0.240     0.240    -0.000
     In    24      Py                   0.238     0.238    -0.000
     In    24      Pz                   0.248     0.248     0.000
     In    24      S                   -0.242    -0.242    -0.000
     In    25      Dzz                  1.000     1.000    -0.000
     In    25      Dzy                  0.998     0.998     0.000
     In    25      Dzx                  0.998     0.998     0.000
     In    25      Dxx-yy               1.000     1.000    -0.000
     In    25      Dxy                  0.998     0.998     0.000
     In    25      S                    0.708     0.708    -0.000
     In    25      Px                   0.243     0.243    -0.000
     In    25      Py                   0.243     0.243    -0.000
     In    25      Pz                   0.234     0.234    -0.000
     In    25      S                   -0.271    -0.271    -0.000
     In    26      Dzz                  1.000     1.000    -0.000
     In    26      Dzy                  0.999     0.999     0.000
     In    26      Dzx                  0.998     0.998    -0.000
     In    26      Dxx-yy               1.000     1.000    -0.000
     In    26      Dxy                  0.999     0.999     0.000
     In    26      S                    0.697     0.697     0.000
     In    26      Px                   0.243     0.243     0.000
     In    26      Py                   0.240     0.240     0.000
     In    26      Pz                   0.242     0.242     0.000
     In    26      S                   -0.230    -0.230     0.000
     In    27      Dzz                  1.000     1.000     0.000
     In    27      Dzy                  0.998     0.998    -0.000
     In    27      Dzx                  0.999     0.999     0.000
     In    27      Dxx-yy               1.000     1.000    -0.000
     In    27      Dxy                  0.999     0.999     0.000
     In    27      S                    0.697     0.697     0.000
     In    27      Px                   0.240     0.240     0.000
     In    27      Py                   0.243     0.243    -0.000
     In    27      Pz                   0.242     0.242    -0.000
     In    27      S                   -0.230    -0.230     0.000
     In    28      Dzz                  1.000     1.000     0.000
     In    28      Dzy                  0.998     0.998     0.000
     In    28      Dzx                  0.998     0.998    -0.000
     In    28      Dxx-yy               1.000     1.000     0.000
     In    28      Dxy                  0.999     0.999    -0.000
     In    28      S                    0.707     0.707    -0.000
     In    28      Px                   0.239     0.239    -0.000
     In    28      Py                   0.239     0.239    -0.000
     In    28      Pz                   0.242     0.242    -0.000
     In    28      S                   -0.259    -0.259    -0.000
     In    29      Dzz                  1.000     1.000    -0.000
     In    29      Dzy                  0.999     0.999     0.000
     In    29      Dzx                  0.998     0.998     0.000
     In    29      Dxx-yy               1.000     1.000    -0.000
     In    29      Dxy                  0.998     0.998     0.000
     In    29      S                    0.703     0.703    -0.000
     In    29      Px                   0.242     0.242    -0.000
     In    29      Py                   0.247     0.247    -0.000
     In    29      Pz                   0.237     0.237    -0.000
     In    29      S                   -0.239    -0.239     0.000
     In    30      Dzz                  1.000     1.000    -0.000
     In    30      Dzy                  0.998     0.998     0.000
     In    30      Dzx                  0.999     0.999     0.000
     In    30      Dxx-yy               1.000     1.000    -0.000
     In    30      Dxy                  0.998     0.998     0.000
     In    30      S                    0.703     0.703    -0.000
     In    30      Px                   0.247     0.247    -0.000
     In    30      Py                   0.242     0.242    -0.000
     In    30      Pz                   0.237     0.237    -0.000
     In    30      S                   -0.239    -0.239     0.000
     In    31      Dzz                  1.000     1.000     0.000
     In    31      Dzy                  0.999     0.999     0.000
     In    31      Dzx                  0.999     0.999     0.000
     In    31      Dxx-yy               1.000     1.000     0.000
     In    31      Dxy                  0.999     0.999    -0.000
     In    31      S                    0.716     0.716     0.000
     In    31      Px                   0.232     0.232    -0.000
     In    31      Py                   0.232     0.232    -0.000
     In    31      Pz                   0.224     0.224     0.000
     In    31      S                   -0.223    -0.223    -0.000
  ---------------------------------------------------------------
                           Total:     281.500   281.500     0.001
  ---------------------------------------------------------------

     Atomic Populations (Mulliken)
     -----------------------------
Species          Ion Spin      s       p       d       f      Total   Charge(e)   Spin(hbar/2)
==============================================================================================
  P               1   up:     0.895   1.911   0.000   0.000   2.806    -0.612       -0.000
                  1   dn:     0.895   1.911   0.000   0.000   2.806
  P               2   up:     0.874   1.952   0.000   0.000   2.826    -0.651        0.000
                  2   dn:     0.874   1.952   0.000   0.000   2.826
  P               3   up:     0.874   1.952   0.000   0.000   2.826    -0.651       -0.000
                  3   dn:     0.874   1.952   0.000   0.000   2.826
  P               4   up:     0.901   1.806   0.000   0.000   2.707    -0.414        0.000
                  4   dn:     0.901   1.806   0.000   0.000   2.707
  P               5   up:     0.870   1.962   0.000   0.000   2.833    -0.665       -0.000
                  5   dn:     0.870   1.962   0.000   0.000   2.833
  P               6   up:     0.873   1.953   0.000   0.000   2.825    -0.651       -0.000
                  6   dn:     0.873   1.953   0.000   0.000   2.825
  P               7   up:     0.873   1.953   0.000   0.000   2.825    -0.651       -0.000
                  7   dn:     0.873   1.953   0.000   0.000   2.825
  P               8   up:     0.870   1.960   0.000   0.000   2.830    -0.660       -0.000
                  8   dn:     0.870   1.960   0.000   0.000   2.830
  P               9   up:     0.869   1.963   0.000   0.000   2.833    -0.666        0.000
                  9   dn:     0.869   1.963   0.000   0.000   2.833
  P              10   up:     0.868   1.965   0.000   0.000   2.832    -0.665        0.000
                 10   dn:     0.868   1.965   0.000   0.000   2.832
  P              11   up:     0.871   1.959   0.000   0.000   2.830    -0.660       -0.000
                 11   dn:     0.871   1.959   0.000   0.000   2.830
  P              12   up:     0.870   1.962   0.000   0.000   2.832    -0.664       -0.000
                 12   dn:     0.870   1.962   0.000   0.000   2.832
  P              13   up:     0.872   1.957   0.000   0.000   2.828    -0.657        0.000
                 13   dn:     0.872   1.957   0.000   0.000   2.828
  P              14   up:     0.900   1.886   0.000   0.000   2.785    -0.571        0.000
                 14   dn:     0.900   1.885   0.000   0.000   2.785
  P              15   up:     0.873   1.954   0.000   0.000   2.827    -0.655        0.000
                 15   dn:     0.873   1.954   0.000   0.000   2.827
  P              16   up:     0.874   1.952   0.000   0.000   2.826    -0.652        0.000
                 16   dn:     0.874   1.952   0.000   0.000   2.826
  P              17   up:     0.869   1.963   0.000   0.000   2.833    -0.666        0.000
                 17   dn:     0.869   1.963   0.000   0.000   2.833
  P              18   up:     0.871   1.959   0.000   0.000   2.830    -0.660       -0.000
                 18   dn:     0.871   1.959   0.000   0.000   2.830
  P              19   up:     0.868   1.965   0.000   0.000   2.832    -0.665        0.000
                 19   dn:     0.868   1.965   0.000   0.000   2.832
  P              20   up:     0.870   1.962   0.000   0.000   2.832    -0.664       -0.000
                 20   dn:     0.870   1.962   0.000   0.000   2.832
  P              21   up:     0.872   1.957   0.000   0.000   2.828    -0.657        0.000
                 21   dn:     0.872   1.957   0.000   0.000   2.828
  P              22   up:     0.873   1.954   0.000   0.000   2.827    -0.655        0.000
                 22   dn:     0.873   1.954   0.000   0.000   2.827
  P              23   up:     0.900   1.886   0.000   0.000   2.785    -0.571        0.000
                 23   dn:     0.900   1.885   0.000   0.000   2.785
  P              24   up:     0.874   1.952   0.000   0.000   2.826    -0.652        0.000
                 24   dn:     0.874   1.952   0.000   0.000   2.826
  P              25   up:     0.908   1.804   0.000   0.000   2.712    -0.423        0.000
                 25   dn:     0.908   1.804   0.000   0.000   2.712
  P              26   up:     0.873   1.954   0.000   0.000   2.826    -0.653       -0.000
                 26   dn:     0.873   1.954   0.000   0.000   2.827
  P              27   up:     0.873   1.954   0.000   0.000   2.826    -0.653       -0.000
                 27   dn:     0.873   1.954   0.000   0.000   2.827
  P              28   up:     0.879   1.942   0.000   0.000   2.820    -0.641        0.000
                 28   dn:     0.879   1.942   0.000   0.000   2.820
  P              29   up:     0.869   1.963   0.000   0.000   2.833    -0.665       -0.000
                 29   dn:     0.869   1.963   0.000   0.000   2.833
  P              30   up:     0.872   1.960   0.000   0.000   2.832    -0.663        0.000
                 30   dn:     0.872   1.960   0.000   0.000   2.832
  P              31   up:     0.872   1.960   0.000   0.000   2.832    -0.663        0.000
                 31   dn:     0.872   1.960   0.000   0.000   2.832
  P              32   up:     0.870   1.963   0.000   0.000   2.833    -0.666       -0.000
                 32   dn:     0.870   1.963   0.000   0.000   2.833
  In              1   up:     0.469   0.719   4.995   0.000   6.183     0.635       -0.000
                  1   dn:     0.469   0.719   4.995   0.000   6.183
  In              2   up:     0.452   0.724   4.995   0.000   6.170     0.659       -0.000
                  2   dn:     0.452   0.724   4.995   0.000   6.170
  In              3   up:     0.452   0.724   4.995   0.000   6.170     0.659        0.000
                  3   dn:     0.452   0.724   4.995   0.000   6.170
  In              4   up:     0.440   0.720   4.995   0.000   6.156     0.689       -0.000
                  4   dn:     0.440   0.720   4.995   0.000   6.156
  In              5   up:     0.474   0.719   4.995   0.000   6.188     0.624        0.000
                  5   dn:     0.474   0.719   4.995   0.000   6.188
  In              6   up:     0.453   0.711   4.995   0.000   6.159     0.682        0.000
                  6   dn:     0.453   0.711   4.995   0.000   6.159
  In              7   up:     0.453   0.711   4.995   0.000   6.159     0.682        0.000
                  7   dn:     0.453   0.711   4.995   0.000   6.159
  In              8   up:     0.490   0.646   4.996   0.000   6.131     0.738        0.000
                  8   dn:     0.490   0.646   4.996   0.000   6.131
  In              9   up:     0.462   0.714   4.995   0.000   6.171     0.657       -0.000
                  9   dn:     0.462   0.714   4.995   0.000   6.171
  In             10   up:     0.478   0.722   4.995   0.000   6.195     0.610       -0.000
                 10   dn:     0.478   0.722   4.995   0.000   6.195
  In             11   up:     0.443   0.721   4.995   0.000   6.158     0.683       -0.000
                 11   dn:     0.443   0.721   4.995   0.000   6.158
  In             12   up:     0.444   0.722   4.994   0.000   6.160     0.680       -0.000
                 12   dn:     0.444   0.722   4.994   0.000   6.160
  In             13   up:     0.451   0.716   4.995   0.000   6.161     0.677       -0.000
                 13   dn:     0.451   0.716   4.995   0.000   6.161
  In             14   up:     0.470   0.734   4.994   0.000   6.199     0.603       -0.000
                 14   dn:     0.470   0.734   4.994   0.000   6.199
  In             15   up:     0.447   0.715   4.995   0.000   6.157     0.685       -0.000
                 15   dn:     0.447   0.715   4.995   0.000   6.157
  In             16   up:     0.464   0.726   4.994   0.000   6.184     0.631       -0.000
                 16   dn:     0.464   0.726   4.994   0.000   6.184
  In             17   up:     0.462   0.714   4.995   0.000   6.171     0.657        0.000
                 17   dn:     0.462   0.714   4.995   0.000   6.171
  In             18   up:     0.443   0.721   4.995   0.000   6.158     0.683       -0.000
                 18   dn:     0.443   0.721   4.995   0.000   6.158
  In             19   up:     0.478   0.722   4.995   0.000   6.195     0.610        0.000
                 19   dn:     0.478   0.722   4.995   0.000   6.195
  In             20   up:     0.444   0.722   4.994   0.000   6.160     0.680       -0.000
                 20   dn:     0.444   0.722   4.994   0.000   6.160
  In             21   up:     0.451   0.716   4.995   0.000   6.161     0.677       -0.000
                 21   dn:     0.451   0.716   4.995   0.000   6.161
  In             22   up:     0.447   0.715   4.995   0.000   6.157     0.685       -0.000
                 22   dn:     0.447   0.715   4.995   0.000   6.157
  In             23   up:     0.470   0.734   4.994   0.000   6.199     0.603       -0.000
                 23   dn:     0.470   0.734   4.994   0.000   6.199
  In             24   up:     0.464   0.726   4.994   0.000   6.184     0.631       -0.000
                 24   dn:     0.464   0.726   4.994   0.000   6.184
  In             25   up:     0.437   0.721   4.995   0.000   6.152     0.696       -0.000
                 25   dn:     0.437   0.721   4.995   0.000   6.152
  In             26   up:     0.467   0.725   4.995   0.000   6.186     0.627        0.000
                 26   dn:     0.467   0.725   4.995   0.000   6.186
  In             27   up:     0.467   0.725   4.995   0.000   6.186     0.627        0.000
                 27   dn:     0.467   0.725   4.995   0.000   6.186
  In             28   up:     0.449   0.719   4.995   0.000   6.163     0.675       -0.000
                 28   dn:     0.449   0.719   4.995   0.000   6.163
  In             29   up:     0.464   0.726   4.995   0.000   6.184     0.632       -0.000
                 29   dn:     0.464   0.726   4.995   0.000   6.184
  In             30   up:     0.464   0.726   4.995   0.000   6.184     0.632       -0.000
                 30   dn:     0.464   0.726   4.995   0.000   6.184
  In             31   up:     0.492   0.688   4.996   0.000   6.176     0.648        0.000
                 31   dn:     0.492   0.688   4.996   0.000   6.176
==============================================================================================

                 Bond                   Population        Spin       Length (A)
================================================================================
              P 1  -- In 3                   0.74         0.00          2.53436
              P 1  -- In 2                   0.74         0.00          2.53436
              P 23 -- In 24                  0.76         0.00          2.53480
              P 14 -- In 16                  0.76         0.00          2.53480
              P 14 -- In 30                  0.78        -0.00          2.53736
              P 23 -- In 29                  0.78        -0.00          2.53736
              P 13 -- In 14                  0.67        -0.00          2.54017
              P 21 -- In 23                  0.67         0.00          2.54017
              P 10 -- In 12                  0.68         0.00          2.54116
              P 19 -- In 20                  0.68         0.00          2.54116
              P 8  -- In 25                  0.67        -0.00          2.54355
              P 19 -- In 19                  0.64         0.00          2.54847
              P 10 -- In 10                  0.64        -0.00          2.54847
              P 23 -- In 23                  0.74        -0.00          2.54859
              P 14 -- In 14                  0.74        -0.00          2.54859
              P 8  -- In 4                   0.68        -0.00          2.54926
              P 29 -- In 25                  0.66        -0.00          2.54958
              P 24 -- In 20                  0.67        -0.00          2.55008
              P 16 -- In 12                  0.67        -0.00          2.55008
              P 32 -- In 22                  0.66        -0.00          2.55134
              P 32 -- In 15                  0.66        -0.00          2.55134
              P 11 -- In 1                   0.64         0.00          2.55430
              P 18 -- In 1                   0.64         0.00          2.55430
              P 29 -- In 28                  0.67         0.00          2.55478
              P 5  -- In 7                   0.65         0.00          2.55632
              P 5  -- In 6                   0.65         0.00          2.55632
              P 21 -- In 20                  0.64        -0.00          2.55638
              P 13 -- In 12                  0.64        -0.00          2.55638
              P 9  -- In 11                  0.66        -0.00          2.55878
              P 17 -- In 18                  0.66        -0.00          2.55878
              P 17 -- In 21                  0.66        -0.00          2.55894
              P 9  -- In 13                  0.66        -0.00          2.55894
              P 10 -- In 27                  0.63        -0.00          2.55940
              P 19 -- In 26                  0.63        -0.00          2.55940
              P 30 -- In 29                  0.63        -0.00          2.56148
              P 31 -- In 30                  0.63        -0.00          2.56148
              P 7  -- In 14                  0.59         0.00          2.56198
              P 6  -- In 23                  0.59         0.00          2.56198
              P 20 -- In 13                  0.66         0.00          2.56221
              P 12 -- In 21                  0.66         0.00          2.56221
              P 28 -- In 18                  0.65         0.00          2.56225
              P 28 -- In 11                  0.65         0.00          2.56225
              P 17 -- In 19                  0.66         0.00          2.56251
              P 9  -- In 10                  0.66         0.00          2.56251
              P 2  -- In 4                   0.64         0.00          2.56404
              P 3  -- In 4                   0.64         0.00          2.56404
              P 32 -- In 1                   0.64        -0.00          2.56420
              P 19 -- In 25                  0.66         0.00          2.56561
              P 10 -- In 25                  0.66         0.00          2.56561
              P 18 -- In 18                  0.65        -0.00          2.56588
              P 11 -- In 11                  0.65        -0.00          2.56588
              P 18 -- In 20                  0.63        -0.00          2.56656
              P 11 -- In 12                  0.63        -0.00          2.56656
              P 5  -- In 1                   0.64        -0.00          2.56671
              P 27 -- In 17                  0.63         0.00          2.56714
              P 26 -- In 9                   0.63         0.00          2.56714
              P 26 -- In 11                  0.65        -0.00          2.56758
              P 27 -- In 18                  0.65        -0.00          2.56758
              P 32 -- In 28                  0.64         0.00          2.56784
              P 22 -- In 7                   0.66        -0.00          2.56793
              P 15 -- In 6                   0.66        -0.00          2.56793
              P 13 -- In 15                  0.64        -0.00          2.56815
              P 21 -- In 22                  0.64        -0.00          2.56815
              P 26 -- In 28                  0.63        -0.00          2.56844
              P 27 -- In 28                  0.63        -0.00          2.56844
              P 6  -- In 21                  0.63         0.00          2.56863
              P 7  -- In 13                  0.63         0.00          2.56863
              P 20 -- In 26                  0.66         0.00          2.56910
              P 12 -- In 27                  0.66         0.00          2.56910
              P 31 -- In 21                  0.63         0.00          2.56930
              P 30 -- In 13                  0.63         0.00          2.56930
              P 22 -- In 22                  0.66        -0.00          2.57002
              P 15 -- In 15                  0.66        -0.00          2.57002
              P 20 -- In 3                   0.64        -0.00          2.57044
              P 12 -- In 2                   0.64        -0.00          2.57044
              P 4  -- In 8                   0.73        -0.00          2.57081
              P 30 -- In 15                  0.65         0.00          2.57125
              P 31 -- In 22                  0.65        -0.00          2.57125
              P 22 -- In 24                  0.61         0.00          2.57171
              P 15 -- In 16                  0.61        -0.00          2.57171
              P 20 -- In 24                  0.63        -0.00          2.57180
              P 12 -- In 16                  0.63         0.00          2.57180
              P 29 -- In 30                  0.64         0.00          2.57360
              P 29 -- In 29                  0.64         0.00          2.57360
              P 5  -- In 4                   0.64        -0.00          2.57428
              P 30 -- In 31                  0.66         0.00          2.57509
              P 31 -- In 31                  0.66         0.00          2.57509
              P 3  -- In 9                   0.63        -0.00          2.57510
              P 2  -- In 17                  0.63        -0.00          2.57510
              P 15 -- In 5                   0.60         0.00          2.57589
              P 22 -- In 5                   0.60        -0.00          2.57589
              P 24 -- In 9                   0.63         0.00          2.57635
              P 16 -- In 17                  0.63         0.00          2.57635
              P 1  -- In 5                   0.71         0.00          2.57646
              P 7  -- In 8                   0.67         0.00          2.57712
              P 6  -- In 8                   0.67         0.00          2.57712
              P 21 -- In 17                  0.61        -0.00          2.57875
              P 13 -- In 9                   0.61        -0.00          2.57875
              P 3  -- In 10                  0.66         0.00          2.57935
              P 2  -- In 19                  0.66         0.00          2.57935
              P 11 -- In 2                   0.63        -0.00          2.58037
              P 18 -- In 3                   0.63         0.00          2.58037
              P 16 -- In 6                   0.63         0.00          2.58209
              P 24 -- In 7                   0.63         0.00          2.58209
              P 17 -- In 24                  0.61         0.00          2.58233
              P 9  -- In 16                  0.61         0.00          2.58233
              P 27 -- In 27                  0.64        -0.00          2.58652
              P 26 -- In 26                  0.64         0.00          2.58652
              P 6  -- In 6                   0.64        -0.00          2.58687
              P 7  -- In 7                   0.64        -0.00          2.58687
              P 2  -- In 2                   0.61        -0.00          2.59132
              P 3  -- In 3                   0.61        -0.00          2.59132
              P 8  -- In 14                  0.63         0.00          2.59185
              P 8  -- In 23                  0.63         0.00          2.59185
              P 25 -- In 27                  0.66         0.00          2.59241
              P 25 -- In 26                  0.66         0.00          2.59241
              P 24 -- In 29                  0.60        -0.00          2.59555
              P 16 -- In 30                  0.60        -0.00          2.59555
              P 28 -- In 5                   0.60        -0.00          2.59555
              P 4  -- In 10                  0.59         0.00          2.61945
              P 4  -- In 19                  0.59         0.00          2.61945
              P 28 -- In 31                  0.57         0.00          2.66971
              P 4  -- P 25                   0.30        -0.00          2.68063
              P 25 -- In 31                  0.48        -0.00          2.77135
================================================================================

 Hirshfeld supercell size:           2           2           2
Standard grid dimensions: 240 240 240
Fine grid dimensions:     240 240 240


     Hirshfeld Analysis
     ------------------
Species   Ion     Hirshfeld Charge (e)  Spin (hbar/2)
===================================================
  P        1                -0.25        0.00
  P        2                -0.23        0.00
  P        3                -0.23        0.00
  P        4                -0.12       -0.00
  P        5                -0.23        0.00
  P        6                -0.23       -0.00
  P        7                -0.23       -0.00
  P        8                -0.24       -0.00
  P        9                -0.24       -0.00
  P       10                -0.24        0.00
  P       11                -0.23        0.00
  P       12                -0.24       -0.00
  P       13                -0.23        0.00
  P       14                -0.23        0.00
  P       15                -0.23        0.00
  P       16                -0.23        0.00
  P       17                -0.24       -0.00
  P       18                -0.23        0.00
  P       19                -0.24        0.00
  P       20                -0.24       -0.00
  P       21                -0.23        0.00
  P       22                -0.23        0.00
  P       23                -0.23        0.00
  P       24                -0.23        0.00
  P       25                -0.13       -0.00
  P       26                -0.23        0.00
  P       27                -0.23        0.00
  P       28                -0.23       -0.00
  P       29                -0.24       -0.00
  P       30                -0.23       -0.00
  P       31                -0.23       -0.00
  P       32                -0.23        0.00
  In       1                 0.24        0.00
  In       2                 0.22       -0.00
  In       3                 0.22       -0.00
  In       4                 0.23        0.00
  In       5                 0.23        0.00
  In       6                 0.25        0.00
  In       7                 0.25        0.00
  In       8                 0.30       -0.00
  In       9                 0.24        0.00
  In      10                 0.23       -0.00
  In      11                 0.23       -0.00
  In      12                 0.24        0.00
  In      13                 0.23       -0.00
  In      14                 0.21        0.00
  In      15                 0.24        0.00
  In      16                 0.22        0.00
  In      17                 0.24        0.00
  In      18                 0.23       -0.00
  In      19                 0.23       -0.00
  In      20                 0.24        0.00
  In      21                 0.23       -0.00
  In      22                 0.24        0.00
  In      23                 0.21        0.00
  In      24                 0.22        0.00
  In      25                 0.23       -0.00
  In      26                 0.22       -0.00
  In      27                 0.22       -0.00
  In      28                 0.24        0.00
  In      29                 0.22        0.00
  In      30                 0.22        0.00
  In      31                 0.26       -0.00
===================================================

 
 A BibTeX formatted list of references used in this run has been written to 
 In_Vacancy_Migration_15->60_Singlepoints_2.bib
 
Initialisation time =     29.95 s
Calculation time    =   9323.40 s
Finalisation time   =    171.52 s
Total time          =   9524.86 s
Peak Memory Use     = 9520644 kB
 
Overall parallel efficiency rating: Poor (35%)
 
Data was distributed by:-
G-vector (3-way); efficiency rating: Poor (38%)
k-point (36-way); efficiency rating: Very good (84%)
