 +-------------------------------------------------+
 |                                                 |
 |      CCC   AA    SSS  TTTTT  EEEEE  PPPP        |
 |     C     A  A  S       T    E      P   P       |
 |     C     AAAA   SS     T    EEE    PPPP        |
 |     C     A  A     S    T    E      P           |
 |      CCC  A  A  SSS     T    EEEEE  P           |
 |                                                 |
 +-------------------------------------------------+
 |                                                 |
 | Welcome to Academic Release CASTEP version 24.1 |
 | Ab Initio Total Energy Program                  |
 |                                                 |
 | Authors:                                        |
 | M. Segall, M. Probert, C. Pickard, P. Hasnip,   |
 | S. Clark, K. Refson, J. R. Yates,               |
 | A. Bartok-Partay, M. Payne                      |
 |                                                 |
 | Contributors:                                   |
 | P. Lindan, P. Haynes, J. White, V. Milman,      |
 | N. Govind, M. Gibson, P. Tulip, V. Cocula,      |
 | B. Montanari, D. Quigley, M. Glover,            |
 | L. Bernasconi, A. Perlov, M. Plummer,           |
 | E. McNellis, J. Meyer, J. Gale, D. Jochym       |
 | J. Aarons, B. Walker, R. Gillen, D. Jones       |
 | T. Green, I. J. Bush, C. J. Armstrong,          |
 | E. J. Higgins, E. L. Brown, M. S. McFly,        |
 | J. Wilkins, B-C. Shih, P. J. P. Byrne,          |
 | R. J. Maurer, J. C. Womack, J. Dziedzic,        |
 | L. LeBlanc, T. K. Stenczel, J. Kermode,         |
 | S. Sturniolo, B. Shi, B. Durham, M. Evans,      |
 | M. J. Smith, A. Tamerus, Z. Hawkhead,           |
 | V. Ravindran, T. Hollins, S. A. Joyce,          |
 | R. T. Strong, A. M. Reilly, S. J. Donaldson     |
 |                                                 |
 | Copyright (c) 2000 - 2023                       |
 |                                                 |
 |     Distributed under license from Cambridge    |
 |     Enterprise for academic use only.           |
 |                                                 |
 | Please cite                                     |
 |                                                 |
 |     "First principles methods using CASTEP"     |
 |                                                 |
 |         Zeitschrift fuer Kristallographie       |
 |           220(5-6) pp. 567-570 (2005)           |
 |                                                 |
 | S. J. Clark, M. D. Segall, C. J. Pickard,       |
 | P. J. Hasnip, M. J. Probert, K. Refson,         |
 | M. C. Payne                                     |
 |                                                 |
 |       in all publications arising from          |
 |              your use of CASTEP                 |
 |                                                 |
 +-------------------------------------------------+
 |                                                 |
 |              http://www.castep.org              |
 |                                                 |
 +-------------------------------------------------+



 Compiled for  GNU 11.2.0 on 04-04-2024 18:39:17
 from code version 6355fd106 Castep241_branch Thu Mar 7 17:56:19 2024 +0000
 Compiler: GNU Fortran 11.2.0; Optimisation: FAST
 Comms   : MPI VERSION : CRAY MPICH version 8.1.23.14 (ANL base 3.4a2)
 MATHLIBS: default (LAPACK version 3.10.1)
 FFT Lib : fftw3 version commercial-fftw-3.3.10-sse2-avx-avx2-avx2_128
 Fundamental constants values: CODATA 2018

 Run started: Wed, 30 Jul 2025 15:21:21 +0100

 Atomic calculation performed for P: 1s2 2s2 2p6 3s2 3p3

 Converged in 47 iterations to an ae energy of -9309.074 eV

   ============================================================                
   | Pseudopotential Report - Date of generation 30-07-2025   |                
   ------------------------------------------------------------                
   | Element: P Ionic charge:  5.00 Level of theory: RSCAN    |                
   | Atomic Solver: Koelling-Harmon                           |                
   |                                                          |                
   |               Reference Electronic Structure             |                
   |         Orbital         Occupation         Energy        |                
   |            3s              2.000           -0.535        |                
   |            3p              3.000           -0.209        |                
   |                                                          |                
   |                 Pseudopotential Definition               |                
   |        Beta     l      e      Rc     scheme   norm       |                
   |          1      0   -0.535   1.807     qc      0         |                
   |          2      0    0.250   1.807     qc      0         |                
   |          3      1   -0.209   1.807     qc      0         |                
   |          4      1    0.250   1.807     qc      0         |                
   |          5      2    0.000   1.807     qc      0         |                
   |          6      2    0.250   1.807     qc      0         |                
   |         loc     3    0.000   1.807     pn      0         |                
   |                                                          |                
   | Augmentation charge Rinner = 1.263                       |                
   | Partial core correction Rc = 1.263                       |                
   ------------------------------------------------------------                
   | "3|1.8|4|4|5|30:31:32"                                   |                
   ------------------------------------------------------------                
   |      Author: Chris J. Pickard, Cambridge University      |                
   ============================================================                
 Warning: otfg_output_psp cannot write out meta-GGA pseudopotentials presently.

 Atomic calculation performed for In:
 1s2 2s2 2p6 3s2 3p6 3d10 4s2 4p6 4d10 5s2 5p1

 Converged in 84 iterations to an ae energy of -160093.328 eV

   ============================================================                
   | Pseudopotential Report - Date of generation 30-07-2025   |                
   ------------------------------------------------------------                
   | Element: In Ionic charge: 13.00 Level of theory: RSCAN   |                
   | Atomic Solver: Koelling-Harmon                           |                
   |                                                          |                
   |               Reference Electronic Structure             |                
   |         Orbital         Occupation         Energy        |                
   |            4d             10.000           -0.711        |                
   |            5s              2.000           -0.313        |                
   |            5p              1.000           -0.095        |                
   |                                                          |                
   |                 Pseudopotential Definition               |                
   |        Beta     l      e      Rc     scheme   norm       |                
   |          1      0   -0.313   2.501     qc      0         |                
   |          2      0    0.250   2.501     qc      0         |                
   |          3      1   -0.095   2.501     qc      0         |                
   |          4      1    0.250   2.501     qc      0         |                
   |          5      2   -0.711   2.207     qc      0         |                
   |          6      2    0.250   2.207     qc      0         |                
   |         loc     3    0.000   2.501     pn      0         |                
   |                                                          |                
   | Augmentation charge Rinner = 1.504                       |                
   | Partial core correction Rc = 1.504                       |                
   ------------------------------------------------------------                
   | "3|2.5|2.5|1.5|7|8|9|50:51:42U2.2U2.2"                   |                
   ------------------------------------------------------------                
   |      Author: Chris J. Pickard, Cambridge University      |                
   ============================================================                
 Warning: otfg_output_psp cannot write out meta-GGA pseudopotentials presently.

 Pseudo atomic calculation performed for P 3s2 3p3

 Converged in 23 iterations to a total energy of -208.0292 eV

 Pseudo atomic calculation performed for In 4d10 5s2 5p1

 Converged in 42 iterations to a total energy of -1747.4501 eV
 Calculation parallelised over 108 processes.
 Data is distributed by G-vector(3-way) and k-point(36-way)
 Each process may use up to 16 threads.

 ************************************ Title ************************************
 

 ***************************** General Parameters ******************************
  
 output verbosity                               : normal  (1)
 write checkpoint data to                       : In_Interstitial_Migration_Tetra_Octa_Singlepoints_4.check
 type of calculation                            : single point energy
 stress calculation                             : off
 density difference calculation                 : off
 electron localisation func (ELF) calculation   : off
 Hirshfeld analysis                             : on
 polarisation (Berry phase) analysis            : off
 molecular orbital projected DOS                : off
 deltaSCF calculation                           : off
 unlimited duration calculation
 timing information                             : on
 memory usage estimate                          : on
 write extra output files                       : on
 write final potential to formatted file        : off
 write final density to formatted file          : off
 write BibTeX reference list                    : on
 write OTFG pseudopotential files               : on
 write electrostatic potential file             : on
 write bands file                               : on
 checkpoint writing                             : off
  
 output         length unit                     : A
 output           mass unit                     : amu
 output           time unit                     : ps
 output         charge unit                     : e
 output           spin unit                     : hbar/2
 output         energy unit                     : eV
 output          force unit                     : eV/A
 output       velocity unit                     : A/ps
 output       pressure unit                     : GPa
 output     inv_length unit                     : 1/A
 output      frequency unit                     : cm-1
 output force constant unit                     : eV/A**2
 output         volume unit                     : A**3
 output   IR intensity unit                     : (D/A)**2/amu
 output         dipole unit                     : D
 output         efield unit                     : eV/A/e
 output        entropy unit                     : J/mol/K
 output    efield chi2 unit                     : pm/V
  
 wavefunctions paging                           : none
 random number generator seed                   :  152121166
 data distribution                              : optimal for this architecture
 optimization strategy                          : balance speed and memory

 *********************** Exchange-Correlation Parameters ***********************
  
 using functional                               : RSCAN
 relativistic treatment                         : Koelling-Harmon
 DFT+D: Semi-empirical dispersion correction    : off

 ************************* Pseudopotential Parameters **************************
  
 pseudopotential representation                 : reciprocal space
 <beta|phi> representation                      : reciprocal space
 spin-orbit coupling                            : off

 **************************** Basis Set Parameters *****************************
  
 plane wave basis set cut-off                   :   900.0000   eV
 size of standard grid                          :     2.0000
 size of   fine   gmax                          :    30.7390   1/A
 finite basis set correction                    : none

 **************************** Electronic Parameters ****************************
  
 number of  electrons                           :  589.0    
 net charge of system                           :  0.000    
 net spin   of system                           :  1.000    
 number of  up  spins                           :  295.0    
 number of down spins                           :  294.0    
 treating system as spin-polarized
 number of bands                                :        354

 ********************* Electronic Minimization Parameters **********************
  
 Method: Treating system as metallic with density mixing treatment of electrons,
         and number of  SD  steps               :          1
         and number of  CG  steps               :          4
  
 total energy / atom convergence tol.           : 0.1000E-07   eV
 eigen-energy convergence tolerance             : 0.2203E-08   eV
 max force / atom convergence tol.              : ignored
 convergence tolerance window                   :          3   cycles
 max. number of SCF cycles                      :        100
 number of fixed-spin iterations                :         10
 smearing scheme                                : Gaussian
 smearing width                                 : 0.2000       eV
 Fermi energy convergence tolerance             : 0.2721E-13   eV
 periodic dipole correction                     : NONE

 ************************** Density Mixing Parameters **************************
  
 density-mixing scheme                          : Pulay
 max. length of mixing history                  :         20
 charge density mixing amplitude                : 0.5000    
   spin density mixing amplitude                :  2.000    
 cut-off energy for mixing                      :  900.0       eV

 *********************** Population Analysis Parameters ************************
  
 Population analysis with cutoff                :  3.000       A
 Population analysis output                     : summary and pdos components

 *******************************************************************************
  

                           -------------------------------
                                      Unit Cell
                           -------------------------------
        Real Lattice(A)                      Reciprocal Lattice(1/A)
    11.8025500     0.0000000     0.0000000        0.532358288   0.000000000   0.000000000
     0.0000000    11.8025500     0.0000000        0.000000000   0.532358288   0.000000000
     0.0000000     0.0000000    11.8025500        0.000000000   0.000000000   0.532358288

                       Lattice parameters(A)       Cell Angles
                    a =     11.802550          alpha =   90.000000
                    b =     11.802550          beta  =   90.000000
                    c =     11.802550          gamma =   90.000000

                       Current cell volume =          1644.097416       A**3
                                   density =             2.907464   AMU/A**3
                                           =             4.827958     g/cm^3

                           -------------------------------
                                     Cell Contents
                           -------------------------------
                         Total number of ions in cell =   65
                      Total number of species in cell =    2
                        Max number of any one species =   33

            xxxxxxxxxxxxxxxxxxxxxxxxxxxxxxxxxxxxxxxxxxxxxxxxxxxxxxxxxxxx
            x  Element    Atom        Fractional coordinates of atoms  x
            x            Number           u          v          w      x
            x----------------------------------------------------------x
            x  P            1         0.127848   0.122152   0.379002   x 
            x  P            2         0.387617   0.131926   0.132796   x 
            x  P            3         0.127848   0.378132   0.123022   x 
            x  P            4         0.375299   0.378145   0.379016   x 
            x  P            5         0.118074   0.131926   0.863253   x 
            x  P            6         0.377140   0.123589   0.623474   x 
            x  P            7         0.125877   0.375465   0.623538   x 
            x  P            8         0.387297   0.382937   0.863573   x 
            x  P            9         0.125877   0.622668   0.376335   x 
            x  P           10         0.377140   0.622603   0.124459   x 
            x  P           11         0.118074   0.862383   0.132796   x 
            x  P           12         0.387297   0.862703   0.383807   x 
            x  P           13         0.126411   0.622603   0.873730   x 
            x  P           14         0.377947   0.626319   0.627189   x 
            x  P           15         0.126411   0.872860   0.623474   x 
            x  P           16         0.368561   0.881439   0.882309   x 
            x  P           17         0.627332   0.124123   0.376335   x 
            x  P           18         0.871868   0.122152   0.123022   x 
            x  P           19         0.627332   0.375465   0.124994   x 
            x  P           20         0.882080   0.367920   0.368790   x 
            x  P           21         0.627397   0.123589   0.873730   x 
            x  P           22         0.874535   0.124123   0.623538   x 
            x  P           23         0.629233   0.373680   0.621637   x 
            x  P           24         0.871855   0.378145   0.875571   x 
            x  P           25         0.629233   0.620767   0.374550   x 
            x  P           26         0.874535   0.622668   0.124994   x 
            x  P           27         0.627397   0.872860   0.124459   x 
            x  P           28         0.871855   0.874701   0.379016   x 
            x  P           29         0.623681   0.626319   0.872923   x 
            x  P           30         0.876320   0.620767   0.621637   x 
            x  P           31         0.623681   0.872053   0.627189   x 
            x  P           32         0.867063   0.862703   0.863573   x 
            x  In           1        -0.023922  -0.010728  -0.009857   x 
            x  In           2         0.260728  -0.010728   0.274792   x 
            x  In           3         0.008153   0.241847   0.242718   x 
            x  In           4         0.260728   0.273921  -0.009857   x 
            x  In           5         0.000202  -0.001498   0.501319   x 
            x  In           6         0.247520   0.002480   0.747042   x 
            x  In           7        -0.007991   0.257991   0.743842   x 
            x  In           8         0.251498   0.249798   0.501319   x 
            x  In           9         0.000202   0.500449  -0.000627   x 
            x  In          10         0.251498   0.500449   0.250668   x 
            x  In          11        -0.007991   0.742972   0.258862   x 
            x  In          12         0.247520   0.746172   0.003350   x 
            x  In          13         0.000119   0.495439   0.496309   x 
            x  In          14         0.250754   0.501656   0.745621   x 
            x  In          15         0.003017   0.744063   0.744933   x 
            x  In          16         0.250754   0.744751   0.502526   x 
            x  In          17         0.503828   0.002480   0.003350   x 
            x  In          18         0.749551  -0.001498   0.250668   x 
            x  In          19         0.507028   0.257991   0.258862   x 
            x  In          20         0.749551   0.249798  -0.000627   x 
            x  In          21         0.505249  -0.000754   0.502526   x 
            x  In          22         0.748344  -0.000754   0.745621   x 
            x  In          23         0.505937   0.246983   0.744933   x 
            x  In          24         0.754561   0.249881   0.496309   x 
            x  In          25         0.505249   0.501656   0.000116   x 
            x  In          26         0.754561   0.495439   0.250751   x 
            x  In          27         0.505937   0.744063   0.247853   x 
            x  In          28         0.748344   0.744751   0.000116   x 
            x  In          29         0.502367   0.501393   0.502264   x 
            x  In          30         0.748607   0.501393   0.748504   x 
            x  In          31         0.495435   0.754565   0.755435   x 
            x  In          32         0.748607   0.747634   0.502264   x 
            x  In          33         0.199429   0.050571   0.051442   x 
            xxxxxxxxxxxxxxxxxxxxxxxxxxxxxxxxxxxxxxxxxxxxxxxxxxxxxxxxxxxx


                         No user defined ionic velocities

                           -------------------------------
                                   Details of Species
                           -------------------------------

                               Mass of species in AMU
                                    P   30.9737600
                                    In  114.8180000

                          Electric Quadrupole Moment (Barn)
                                    P    1.0000000 No Isotope Defined
                                    In    0.7700000 Isotope115

                          Files used for pseudopotentials:
                                    P 3|1.8|4|4|5|30:31:32
                                    In 3|2.5|2.5|1.5|7|8|9|50:51:42U2.2U2.2

                           -------------------------------
                              k-Points For BZ Sampling
                           -------------------------------
                       MP grid size for SCF calculation is  4  4  4
                            with an offset of   0.125  0.125  0.125
                       Number of kpoints used =            36

                           -------------------------------
                               Symmetry and Constraints
                           -------------------------------

                      Maximum deviation from symmetry =  0.00000         ANG

                      Number of symmetry operations   =           1
                      Number of ionic constraints     =           3
                      Point group of crystal =     1: C1, 1, 1
                      Space group of crystal =   160: R3m, R 3 -2"

             Set iprint > 1 for details on symmetry rotations/translations

                         Centre of mass is constrained
             Set iprint > 1 for details of linear ionic constraints

                         Number of cell constraints= 0
                         Cell constraints are:  1 2 3 4 5 6

                         External pressure/stress (GPa)
                          0.00000   0.00000   0.00000
                                    0.00000   0.00000
                                              0.00000
 
+---------------- MEMORY AND SCRATCH DISK ESTIMATES PER PROCESS --------------+
|                                                     Memory          Disk    |
| Baseline code, static data and system overhead      368.0 MB         0.0 MB |
| BLAS internal memory storage                          0.0 MB         0.0 MB |
| Model and support data                             4331.9 MB         0.0 MB |
| Electronic energy minimisation requirements        1349.7 MB         0.0 MB |
| Force calculation requirements                      127.4 MB         0.0 MB |
|                                               ----------------------------- |
| Approx. total storage required per process         6049.6 MB         0.0 MB |
|                                                                             |
| Requirements will fluctuate during execution and may exceed these estimates |
+-----------------------------------------------------------------------------+
Calculating approximate eigenstates for fixed initial Hamiltonian
Cut-off for approx. calculation is   89.988 eV
Improving approx. states at cut-off of  450.000 eV
Resetting cut-off to  900.000 eV
Calculating total energy with cut-off of  900.000 eV.
------------------------------------------------------------------------ <-- SCF
SCF loop      Energy           Fermi           Energy gain       Timer   <-- SCF
                               energy          per atom          (sec)   <-- SCF
------------------------------------------------------------------------ <-- SCF
Initial  -6.48024184E+004  0.00000000E+000                       447.72  <-- SCF
      1  -6.45469481E+004  3.89198116E+000  -3.93031255E+000     912.16  <-- SCF
      2  -6.45472661E+004  3.88306341E+000   4.89199994E-003    1232.23  <-- SCF
      3  -6.46170348E+004  4.05965402E+000   1.07336439E+000    1586.97  <-- SCF
      4  -6.46294419E+004  4.12383915E+000   1.90878470E-001    2094.57  <-- SCF
      5  -6.46366806E+004  4.26865110E+000   1.11364805E-001    2458.11  <-- SCF
      6  -6.46249720E+004  4.52484792E+000  -1.80132609E-001    2812.03  <-- SCF
      7  -6.46237084E+004  4.58144234E+000  -1.94387789E-002    3171.91  <-- SCF
      8  -6.46236839E+004  4.60281723E+000  -3.77068737E-004    3548.19  <-- SCF
      9  -6.46245145E+004  4.62417470E+000   1.27780542E-002    3907.53  <-- SCF
     10  -6.46248657E+004  4.68668836E+000   5.40224245E-003    4270.29  <-- SCF
     11  -6.46249001E+004  4.68760267E+000   5.29679521E-004    4643.83  <-- SCF
     12  -6.46249116E+004  4.68554500E+000   1.77181708E-004    5021.87  <-- SCF
     13  -6.46249170E+004  4.68378801E+000   8.32265401E-005    5388.51  <-- SCF
     14  -6.46249196E+004  4.68203752E+000   3.92338302E-005    5759.60  <-- SCF
     15  -6.46249203E+004  4.68155976E+000   1.18769377E-005    6137.24  <-- SCF
     16  -6.46249213E+004  4.68051495E+000   1.46145263E-005    6505.02  <-- SCF
     17  -6.46249216E+004  4.68049521E+000   4.87913109E-006    6871.20  <-- SCF
     18  -6.46249218E+004  4.68080529E+000   3.27122788E-006    7220.40  <-- SCF
     19  -6.46249219E+004  4.68093614E+000   7.08887618E-007    7558.25  <-- SCF
     20  -6.46249219E+004  4.68095309E+000   1.43329680E-007    7877.92  <-- SCF
     21  -6.46249219E+004  4.68096041E+000   2.76569542E-008    8174.65  <-- SCF
     22  -6.46249219E+004  4.68098365E+000   1.16032914E-009    8429.42  <-- SCF
     23  -6.46249219E+004  4.68100084E+000   4.27579859E-010    8683.86  <-- SCF
------------------------------------------------------------------------ <-- SCF
 
Integrated Spin Density     =   -0.372294E-03 hbar/2
Integrated |Spin Density|   =    0.131654E-02 hbar/2
 
Final energy, E             =  -64624.79718191     eV
Final free energy (E-TS)    =  -64624.92187228     eV
(energies not corrected for finite basis set)
 
NB est. 0K energy (E-0.5TS)      =  -64624.85952709     eV
 

 ************************** Forces **************************
 *                                                          *
 *               Cartesian components (eV/A)                *
 * -------------------------------------------------------- *
 *                         x            y            z      *
 *                                                          *
 * P               1     -0.02974      0.02974     -0.08952 *
 * P               2      0.26224      0.19233      0.19488 *
 * P               3     -0.03031     -0.08616      0.02892 *
 * P               4     -0.01117     -0.01736     -0.02093 *
 * P               5     -0.19252      0.19252     -0.26529 *
 * P               6      0.00160     -0.00068      0.02513 *
 * P               7     -0.01327      0.07553     -0.04411 *
 * P               8     -0.01033     -0.02937      0.00672 *
 * P               9     -0.01263     -0.04459      0.07787 *
 * P              10      0.00193      0.02496      0.00152 *
 * P              11     -0.19233     -0.26223      0.19487 *
 * P              12     -0.01032      0.01031     -0.02574 *
 * P              13      0.00074      0.02524     -0.00113 *
 * P              14      0.05057     -0.02150     -0.02058 *
 * P              15      0.00067     -0.00159      0.02513 *
 * P              16      0.04943     -0.04943     -0.04841 *
 * P              17      0.04458      0.01262      0.07787 *
 * P              18      0.08617      0.03032      0.02893 *
 * P              19      0.04400      0.07549      0.01549 *
 * P              20     -0.01317      0.01317      0.01317 *
 * P              21     -0.02524     -0.00075     -0.00113 *
 * P              22     -0.07553      0.01326     -0.04411 *
 * P              23     -0.00305      0.03828     -0.00078 *
 * P              24      0.01777     -0.01778      0.01484 *
 * P              25     -0.00322      0.00323      0.04125 *
 * P              26     -0.07548     -0.04400      0.01549 *
 * P              27     -0.02496     -0.00192      0.00151 *
 * P              28      0.01735      0.01117     -0.02093 *
 * P              29      0.02223     -0.02223     -0.05063 *
 * P              30     -0.03828      0.00306     -0.00078 *
 * P              31      0.02149     -0.05056     -0.02058 *
 * P              32      0.02936      0.01032      0.00672 *
 * In              1      0.08296      0.11301      0.11290 *
 * In              2     -0.11302      0.11302     -0.08300 *
 * In              3      0.06331     -0.06332     -0.06334 *
 * In              4     -0.11300     -0.08294      0.11289 *
 * In              5     -0.04403     -0.00595      0.06417 *
 * In              6     -0.01250      0.01250     -0.01647 *
 * In              7      0.08899     -0.08898     -0.09276 *
 * In              8      0.00596      0.04404      0.06416 *
 * In              9     -0.04404      0.06423     -0.00606 *
 * In             10      0.00597      0.06425      0.04401 *
 * In             11      0.08894     -0.09262     -0.08902 *
 * In             12     -0.01248     -0.01625      0.01230 *
 * In             13      0.12657      0.03535      0.03514 *
 * In             14     -0.07306     -0.00065     -0.00568 *
 * In             15      0.04442     -0.03044     -0.03065 *
 * In             16     -0.07307     -0.00548     -0.00080 *
 * In             17      0.01626      0.01248      0.01230 *
 * In             18     -0.06425     -0.00597      0.04401 *
 * In             19      0.09261     -0.08893     -0.08902 *
 * In             20     -0.06422      0.04404     -0.00606 *
 * In             21      0.00549      0.07308     -0.00080 *
 * In             22      0.00066      0.07307     -0.00568 *
 * In             23      0.03044     -0.04442     -0.03065 *
 * In             24     -0.03535     -0.12656      0.03514 *
 * In             25      0.00549     -0.00065      0.07300 *
 * In             26     -0.03533      0.03533     -0.12666 *
 * In             27      0.03045     -0.03045     -0.04460 *
 * In             28      0.00066     -0.00548      0.07300 *
 * In             29     -0.00577      0.00270      0.00256 *
 * In             30     -0.00269      0.00268      0.00563 *
 * In             31     -0.08212      0.08213      0.08190 *
 * In             32     -0.00270      0.00576      0.00256 *
 * In             33      0.19989     -0.19990     -0.20004 *
 *                                                          *
 ************************************************************

 Pseudo atomic calculation performed for P 3s2 3p3

 Converged in 23 iterations to a total energy of -208.0292 eV

 Pseudo atomic calculation performed for In 4d10 5s2 5p1

 Converged in 42 iterations to a total energy of -1747.4501 eV
Charge spilling parameter for spin component 1 = 0.24%
Charge spilling parameter for spin component 2 = 0.24%

                   Orbital Populations                  
  ---------------------------------------------------------------
     Ion    Atom   Orbital              Up        Down      Spin
  ---------------------------------------------------------------
      P     1      S                    0.870     0.870    -0.000
      P     1      Px                   0.652     0.652     0.000
      P     1      Py                   0.652     0.652     0.000
      P     1      Pz                   0.654     0.654     0.000
      P     2      S                    0.887     0.887    -0.000
      P     2      Px                   0.630     0.630     0.000
      P     2      Py                   0.647     0.647    -0.000
      P     2      Pz                   0.647     0.647    -0.000
      P     3      S                    0.870     0.870    -0.000
      P     3      Px                   0.652     0.652     0.000
      P     3      Py                   0.654     0.654     0.000
      P     3      Pz                   0.652     0.652     0.000
      P     4      S                    0.867     0.867     0.000
      P     4      Px                   0.654     0.654     0.000
      P     4      Py                   0.658     0.658     0.000
      P     4      Pz                   0.658     0.658     0.000
      P     5      S                    0.887     0.887    -0.000
      P     5      Px                   0.647     0.647    -0.000
      P     5      Py                   0.647     0.647    -0.000
      P     5      Pz                   0.630     0.630     0.000
      P     6      S                    0.868     0.868     0.000
      P     6      Px                   0.653     0.653    -0.000
      P     6      Py                   0.658     0.658    -0.000
      P     6      Pz                   0.658     0.658    -0.000
      P     7      S                    0.867     0.867     0.000
      P     7      Px                   0.653     0.653     0.000
      P     7      Py                   0.658     0.658     0.000
      P     7      Pz                   0.657     0.657    -0.000
      P     8      S                    0.869     0.869    -0.000
      P     8      Px                   0.654     0.654     0.000
      P     8      Py                   0.659     0.659     0.000
      P     8      Pz                   0.654     0.654    -0.000
      P     9      S                    0.867     0.867    -0.000
      P     9      Px                   0.653     0.653     0.000
      P     9      Py                   0.657     0.657    -0.000
      P     9      Pz                   0.658     0.658     0.000
      P    10      S                    0.868     0.868     0.000
      P    10      Px                   0.653     0.653     0.000
      P    10      Py                   0.658     0.658    -0.000
      P    10      Pz                   0.657     0.657     0.000
      P    11      S                    0.887     0.887    -0.000
      P    11      Px                   0.647     0.647    -0.000
      P    11      Py                   0.630     0.630     0.000
      P    11      Pz                   0.647     0.647     0.000
      P    12      S                    0.869     0.869    -0.000
      P    12      Px                   0.654     0.654     0.000
      P    12      Py                   0.654     0.654     0.000
      P    12      Pz                   0.659     0.659     0.000
      P    13      S                    0.868     0.868     0.000
      P    13      Px                   0.658     0.658    -0.000
      P    13      Py                   0.658     0.658    -0.000
      P    13      Pz                   0.653     0.653    -0.000
      P    14      S                    0.866     0.866    -0.000
      P    14      Px                   0.657     0.657     0.000
      P    14      Py                   0.657     0.657    -0.000
      P    14      Pz                   0.657     0.657     0.000
      P    15      S                    0.868     0.868     0.000
      P    15      Px                   0.658     0.658    -0.000
      P    15      Py                   0.653     0.653    -0.000
      P    15      Pz                   0.658     0.658     0.000
      P    16      S                    0.872     0.872     0.000
      P    16      Px                   0.652     0.652     0.000
      P    16      Py                   0.652     0.652     0.000
      P    16      Pz                   0.652     0.652     0.000
      P    17      S                    0.867     0.867    -0.000
      P    17      Px                   0.657     0.657    -0.000
      P    17      Py                   0.653     0.653    -0.000
      P    17      Pz                   0.658     0.658     0.000
      P    18      S                    0.870     0.870    -0.000
      P    18      Px                   0.654     0.654     0.000
      P    18      Py                   0.652     0.652    -0.000
      P    18      Pz                   0.652     0.652     0.000
      P    19      S                    0.867     0.867     0.000
      P    19      Px                   0.657     0.657     0.000
      P    19      Py                   0.658     0.658     0.000
      P    19      Pz                   0.653     0.653     0.000
      P    20      S                    0.869     0.869    -0.000
      P    20      Px                   0.656     0.656     0.000
      P    20      Py                   0.656     0.656     0.000
      P    20      Pz                   0.656     0.656     0.000
      P    21      S                    0.868     0.868     0.000
      P    21      Px                   0.658     0.658    -0.000
      P    21      Py                   0.658     0.658    -0.000
      P    21      Pz                   0.653     0.653    -0.000
      P    22      S                    0.867     0.867    -0.000
      P    22      Px                   0.658     0.658     0.000
      P    22      Py                   0.653     0.653     0.000
      P    22      Pz                   0.657     0.657    -0.000
      P    23      S                    0.867     0.867    -0.000
      P    23      Px                   0.657     0.657     0.000
      P    23      Py                   0.655     0.655     0.000
      P    23      Pz                   0.657     0.657     0.000
      P    24      S                    0.867     0.867     0.000
      P    24      Px                   0.658     0.658     0.000
      P    24      Py                   0.658     0.658     0.000
      P    24      Pz                   0.654     0.654     0.000
      P    25      S                    0.867     0.867     0.000
      P    25      Px                   0.657     0.657     0.000
      P    25      Py                   0.657     0.657     0.000
      P    25      Pz                   0.655     0.655     0.000
      P    26      S                    0.867     0.867    -0.000
      P    26      Px                   0.658     0.658     0.000
      P    26      Py                   0.657     0.657     0.000
      P    26      Pz                   0.653     0.653     0.000
      P    27      S                    0.868     0.868     0.000
      P    27      Px                   0.658     0.658     0.000
      P    27      Py                   0.653     0.653    -0.000
      P    27      Pz                   0.657     0.657    -0.000
      P    28      S                    0.867     0.867     0.000
      P    28      Px                   0.658     0.658     0.000
      P    28      Py                   0.654     0.654     0.000
      P    28      Pz                   0.658     0.658     0.000
      P    29      S                    0.866     0.866    -0.000
      P    29      Px                   0.657     0.657     0.000
      P    29      Py                   0.657     0.657    -0.000
      P    29      Pz                   0.657     0.657     0.000
      P    30      S                    0.867     0.867     0.000
      P    30      Px                   0.655     0.655     0.000
      P    30      Py                   0.657     0.657     0.000
      P    30      Pz                   0.657     0.657     0.000
      P    31      S                    0.866     0.866     0.000
      P    31      Px                   0.657     0.657     0.000
      P    31      Py                   0.657     0.657     0.000
      P    31      Pz                   0.657     0.657     0.000
      P    32      S                    0.869     0.869    -0.000
      P    32      Px                   0.659     0.659     0.000
      P    32      Py                   0.654     0.654     0.000
      P    32      Pz                   0.654     0.654    -0.000
     In     1      Dzz                  1.000     1.000     0.000
     In     1      Dzy                  0.998     0.998    -0.000
     In     1      Dzx                  0.999     0.999     0.000
     In     1      Dxx-yy               0.999     0.999     0.000
     In     1      Dxy                  0.999     0.999     0.000
     In     1      S                    0.708     0.708    -0.000
     In     1      Px                   0.217     0.217    -0.000
     In     1      Py                   0.246     0.246     0.000
     In     1      Pz                   0.246     0.246     0.000
     In     1      S                   -0.219    -0.219    -0.000
     In     2      Dzz                  0.999     0.999     0.000
     In     2      Dzy                  0.999     0.999     0.000
     In     2      Dzx                  0.999     0.999     0.000
     In     2      Dxx-yy               1.000     1.000    -0.000
     In     2      Dxy                  0.998     0.998     0.000
     In     2      S                    0.708     0.708    -0.000
     In     2      Px                   0.246     0.246     0.000
     In     2      Py                   0.246     0.246     0.000
     In     2      Pz                   0.217     0.217     0.000
     In     2      S                   -0.219    -0.219    -0.000
     In     3      Dzz                  1.000     1.000    -0.000
     In     3      Dzy                  0.999     0.999     0.000
     In     3      Dzx                  0.999     0.999     0.000
     In     3      Dxx-yy               1.000     1.000    -0.000
     In     3      Dxy                  0.999     0.999     0.000
     In     3      S                    0.708     0.708     0.000
     In     3      Px                   0.241     0.241     0.000
     In     3      Py                   0.241     0.241    -0.000
     In     3      Pz                   0.241     0.241    -0.000
     In     3      S                   -0.282    -0.282     0.000
     In     4      Dzz                  1.000     1.000     0.000
     In     4      Dzy                  0.999     0.999     0.000
     In     4      Dzx                  0.998     0.998     0.000
     In     4      Dxx-yy               0.999     0.999     0.000
     In     4      Dxy                  0.999     0.999     0.000
     In     4      S                    0.708     0.708    -0.000
     In     4      Px                   0.246     0.246     0.000
     In     4      Py                   0.217     0.217     0.000
     In     4      Pz                   0.246     0.246     0.000
     In     4      S                   -0.219    -0.219    -0.000
     In     5      Dzz                  1.000     1.000     0.000
     In     5      Dzy                  0.998     0.998     0.000
     In     5      Dzx                  0.998     0.998     0.000
     In     5      Dxx-yy               1.000     1.000    -0.000
     In     5      Dxy                  0.998     0.998     0.000
     In     5      S                    0.712     0.712     0.000
     In     5      Px                   0.242     0.242     0.000
     In     5      Py                   0.243     0.243    -0.000
     In     5      Pz                   0.238     0.238     0.000
     In     5      S                   -0.268    -0.268     0.000
     In     6      Dzz                  1.000     1.000    -0.000
     In     6      Dzy                  0.999     0.999     0.000
     In     6      Dzx                  0.999     0.999    -0.000
     In     6      Dxx-yy               1.000     1.000     0.000
     In     6      Dxy                  0.998     0.998     0.000
     In     6      S                    0.709     0.709    -0.000
     In     6      Px                   0.244     0.244     0.000
     In     6      Py                   0.244     0.244     0.000
     In     6      Pz                   0.233     0.233     0.000
     In     6      S                   -0.258    -0.258    -0.000
     In     7      Dzz                  0.999     0.999    -0.000
     In     7      Dzy                  0.998     0.998     0.000
     In     7      Dzx                  0.998     0.998    -0.000
     In     7      Dxx-yy               0.999     0.999     0.000
     In     7      Dxy                  0.998     0.998    -0.000
     In     7      S                    0.735     0.735     0.000
     In     7      Px                   0.250     0.250     0.000
     In     7      Py                   0.250     0.250     0.000
     In     7      Pz                   0.238     0.238     0.000
     In     7      S                   -0.283    -0.283    -0.000
     In     8      Dzz                  1.000     1.000    -0.000
     In     8      Dzy                  0.998     0.998     0.000
     In     8      Dzx                  0.998     0.998    -0.000
     In     8      Dxx-yy               1.000     1.000     0.000
     In     8      Dxy                  0.998     0.998    -0.000
     In     8      S                    0.712     0.712    -0.000
     In     8      Px                   0.243     0.243     0.000
     In     8      Py                   0.242     0.242     0.000
     In     8      Pz                   0.238     0.238     0.000
     In     8      S                   -0.268    -0.269     0.000
     In     9      Dzz                  1.000     1.000    -0.000
     In     9      Dzy                  0.998     0.998    -0.000
     In     9      Dzx                  0.998     0.998     0.000
     In     9      Dxx-yy               1.000     1.000     0.000
     In     9      Dxy                  0.998     0.998     0.000
     In     9      S                    0.712     0.712    -0.000
     In     9      Px                   0.242     0.242     0.000
     In     9      Py                   0.238     0.238     0.000
     In     9      Pz                   0.243     0.243     0.000
     In     9      S                   -0.269    -0.269     0.000
     In    10      Dzz                  1.000     1.000    -0.000
     In    10      Dzy                  0.998     0.998     0.000
     In    10      Dzx                  0.998     0.998    -0.000
     In    10      Dxx-yy               1.000     1.000    -0.000
     In    10      Dxy                  0.998     0.998    -0.000
     In    10      S                    0.712     0.712    -0.000
     In    10      Px                   0.243     0.243     0.000
     In    10      Py                   0.238     0.238     0.000
     In    10      Pz                   0.242     0.242     0.000
     In    10      S                   -0.269    -0.268    -0.000
     In    11      Dzz                  0.999     0.999     0.000
     In    11      Dzy                  0.998     0.998     0.000
     In    11      Dzx                  0.998     0.998    -0.000
     In    11      Dxx-yy               0.999     0.999     0.000
     In    11      Dxy                  0.998     0.998     0.000
     In    11      S                    0.735     0.735    -0.000
     In    11      Px                   0.250     0.250     0.000
     In    11      Py                   0.238     0.238     0.000
     In    11      Pz                   0.250     0.250     0.000
     In    11      S                   -0.283    -0.283     0.000
     In    12      Dzz                  1.000     1.000     0.000
     In    12      Dzy                  0.999     0.999     0.000
     In    12      Dzx                  0.998     0.998    -0.000
     In    12      Dxx-yy               1.000     1.000    -0.000
     In    12      Dxy                  0.999     0.999    -0.000
     In    12      S                    0.709     0.709    -0.000
     In    12      Px                   0.244     0.244     0.000
     In    12      Py                   0.233     0.233     0.000
     In    12      Pz                   0.244     0.244     0.000
     In    12      S                   -0.258    -0.258    -0.000
     In    13      Dzz                  1.000     1.000     0.000
     In    13      Dzy                  0.998     0.998    -0.000
     In    13      Dzx                  0.998     0.998     0.000
     In    13      Dxx-yy               1.000     1.000     0.000
     In    13      Dxy                  0.998     0.998     0.000
     In    13      S                    0.709     0.709    -0.000
     In    13      Px                   0.246     0.246     0.000
     In    13      Py                   0.241     0.241     0.000
     In    13      Pz                   0.241     0.241     0.000
     In    13      S                   -0.261    -0.261     0.000
     In    14      Dzz                  1.000     1.000     0.000
     In    14      Dzy                  0.998     0.998    -0.000
     In    14      Dzx                  0.998     0.998    -0.000
     In    14      Dxx-yy               1.000     1.000     0.000
     In    14      Dxy                  0.998     0.998     0.000
     In    14      S                    0.714     0.715    -0.000
     In    14      Px                   0.247     0.247     0.000
     In    14      Py                   0.240     0.240    -0.000
     In    14      Pz                   0.239     0.239    -0.000
     In    14      S                   -0.262    -0.262    -0.000
     In    15      Dzz                  1.000     1.000    -0.000
     In    15      Dzy                  0.998     0.998    -0.000
     In    15      Dzx                  0.998     0.998    -0.000
     In    15      Dxx-yy               1.000     1.000    -0.000
     In    15      Dxy                  0.998     0.998     0.000
     In    15      S                    0.712     0.712     0.000
     In    15      Px                   0.242     0.242     0.000
     In    15      Py                   0.240     0.240     0.000
     In    15      Pz                   0.240     0.240     0.000
     In    15      S                   -0.268    -0.268     0.000
     In    16      Dzz                  1.000     1.000     0.000
     In    16      Dzy                  0.998     0.998    -0.000
     In    16      Dzx                  0.998     0.998     0.000
     In    16      Dxx-yy               1.000     1.000    -0.000
     In    16      Dxy                  0.998     0.998     0.000
     In    16      S                    0.714     0.715    -0.000
     In    16      Px                   0.247     0.247    -0.000
     In    16      Py                   0.239     0.239    -0.000
     In    16      Pz                   0.240     0.240    -0.000
     In    16      S                   -0.262    -0.262    -0.000
     In    17      Dzz                  1.000     1.000    -0.000
     In    17      Dzy                  0.998     0.998    -0.000
     In    17      Dzx                  0.999     0.999     0.000
     In    17      Dxx-yy               1.000     1.000    -0.000
     In    17      Dxy                  0.999     0.999     0.000
     In    17      S                    0.709     0.709    -0.000
     In    17      Px                   0.233     0.233     0.000
     In    17      Py                   0.244     0.244     0.000
     In    17      Pz                   0.244     0.244     0.000
     In    17      S                   -0.258    -0.258    -0.000
     In    18      Dzz                  1.000     1.000    -0.000
     In    18      Dzy                  0.998     0.998    -0.000
     In    18      Dzx                  0.998     0.998     0.000
     In    18      Dxx-yy               1.000     1.000     0.000
     In    18      Dxy                  0.998     0.998    -0.000
     In    18      S                    0.712     0.712    -0.000
     In    18      Px                   0.238     0.238    -0.000
     In    18      Py                   0.243     0.243     0.000
     In    18      Pz                   0.242     0.242     0.000
     In    18      S                   -0.269    -0.268    -0.000
     In    19      Dzz                  0.999     0.999     0.000
     In    19      Dzy                  0.998     0.998     0.000
     In    19      Dzx                  0.998     0.998     0.000
     In    19      Dxx-yy               0.999     0.999     0.000
     In    19      Dxy                  0.998     0.998     0.000
     In    19      S                    0.735     0.735    -0.000
     In    19      Px                   0.238     0.238     0.000
     In    19      Py                   0.250     0.250     0.000
     In    19      Pz                   0.250     0.250     0.000
     In    19      S                   -0.283    -0.283    -0.000
     In    20      Dzz                  1.000     1.000    -0.000
     In    20      Dzy                  0.998     0.998     0.000
     In    20      Dzx                  0.998     0.998    -0.000
     In    20      Dxx-yy               1.000     1.000     0.000
     In    20      Dxy                  0.998     0.998     0.000
     In    20      S                    0.712     0.712    -0.000
     In    20      Px                   0.238     0.238    -0.000
     In    20      Py                   0.242     0.242     0.000
     In    20      Pz                   0.243     0.243     0.000
     In    20      S                   -0.269    -0.269     0.000
     In    21      Dzz                  1.000     1.000    -0.000
     In    21      Dzy                  0.998     0.998    -0.000
     In    21      Dzx                  0.998     0.998    -0.000
     In    21      Dxx-yy               1.000     1.000    -0.000
     In    21      Dxy                  0.998     0.998     0.000
     In    21      S                    0.714     0.714    -0.000
     In    21      Px                   0.239     0.239    -0.000
     In    21      Py                   0.247     0.247    -0.000
     In    21      Pz                   0.240     0.240     0.000
     In    21      S                   -0.262    -0.262    -0.000
     In    22      Dzz                  1.000     1.000    -0.000
     In    22      Dzy                  0.998     0.998     0.000
     In    22      Dzx                  0.998     0.998    -0.000
     In    22      Dxx-yy               1.000     1.000     0.000
     In    22      Dxy                  0.998     0.998    -0.000
     In    22      S                    0.714     0.715    -0.000
     In    22      Px                   0.240     0.240    -0.000
     In    22      Py                   0.247     0.247     0.000
     In    22      Pz                   0.239     0.239    -0.000
     In    22      S                   -0.262    -0.262    -0.000
     In    23      Dzz                  1.000     1.000    -0.000
     In    23      Dzy                  0.998     0.998    -0.000
     In    23      Dzx                  0.998     0.998    -0.000
     In    23      Dxx-yy               1.000     1.000    -0.000
     In    23      Dxy                  0.998     0.998     0.000
     In    23      S                    0.712     0.712    -0.000
     In    23      Px                   0.240     0.240     0.000
     In    23      Py                   0.242     0.242    -0.000
     In    23      Pz                   0.240     0.240     0.000
     In    23      S                   -0.268    -0.268     0.000
     In    24      Dzz                  1.000     1.000    -0.000
     In    24      Dzy                  0.998     0.998     0.000
     In    24      Dzx                  0.998     0.998    -0.000
     In    24      Dxx-yy               1.000     1.000     0.000
     In    24      Dxy                  0.998     0.998     0.000
     In    24      S                    0.709     0.709     0.000
     In    24      Px                   0.241     0.241     0.000
     In    24      Py                   0.246     0.246     0.000
     In    24      Pz                   0.241     0.241     0.000
     In    24      S                   -0.261    -0.261     0.000
     In    25      Dzz                  1.000     1.000     0.000
     In    25      Dzy                  0.998     0.998    -0.000
     In    25      Dzx                  0.998     0.998     0.000
     In    25      Dxx-yy               1.000     1.000    -0.000
     In    25      Dxy                  0.998     0.998    -0.000
     In    25      S                    0.714     0.714    -0.000
     In    25      Px                   0.239     0.239    -0.000
     In    25      Py                   0.240     0.240    -0.000
     In    25      Pz                   0.247     0.247     0.000
     In    25      S                   -0.262    -0.262    -0.000
     In    26      Dzz                  1.000     1.000     0.000
     In    26      Dzy                  0.998     0.998     0.000
     In    26      Dzx                  0.998     0.998     0.000
     In    26      Dxx-yy               1.000     1.000    -0.000
     In    26      Dxy                  0.998     0.998    -0.000
     In    26      S                    0.709     0.709     0.000
     In    26      Px                   0.241     0.241     0.000
     In    26      Py                   0.241     0.241     0.000
     In    26      Pz                   0.246     0.246    -0.000
     In    26      S                   -0.261    -0.261    -0.000
     In    27      Dzz                  1.000     1.000     0.000
     In    27      Dzy                  0.998     0.998     0.000
     In    27      Dzx                  0.998     0.998     0.000
     In    27      Dxx-yy               1.000     1.000    -0.000
     In    27      Dxy                  0.998     0.998    -0.000
     In    27      S                    0.712     0.712     0.000
     In    27      Px                   0.240     0.240     0.000
     In    27      Py                   0.240     0.240     0.000
     In    27      Pz                   0.242     0.242     0.000
     In    27      S                   -0.268    -0.268     0.000
     In    28      Dzz                  1.000     1.000     0.000
     In    28      Dzy                  0.998     0.998     0.000
     In    28      Dzx                  0.998     0.998    -0.000
     In    28      Dxx-yy               1.000     1.000    -0.000
     In    28      Dxy                  0.998     0.998    -0.000
     In    28      S                    0.714     0.715    -0.000
     In    28      Px                   0.240     0.240    -0.000
     In    28      Py                   0.239     0.239     0.000
     In    28      Pz                   0.247     0.247     0.000
     In    28      S                   -0.262    -0.262    -0.000
     In    29      Dzz                  1.000     1.000     0.000
     In    29      Dzy                  0.998     0.998     0.000
     In    29      Dzx                  0.998     0.998     0.000
     In    29      Dxx-yy               1.000     1.000     0.000
     In    29      Dxy                  0.998     0.998     0.000
     In    29      S                    0.711     0.711    -0.000
     In    29      Px                   0.244     0.244     0.000
     In    29      Py                   0.241     0.241     0.000
     In    29      Pz                   0.241     0.241    -0.000
     In    29      S                   -0.265    -0.265     0.000
     In    30      Dzz                  1.000     1.000    -0.000
     In    30      Dzy                  0.998     0.998     0.000
     In    30      Dzx                  0.998     0.998     0.000
     In    30      Dxx-yy               1.000     1.000     0.000
     In    30      Dxy                  0.998     0.998     0.000
     In    30      S                    0.711     0.711    -0.000
     In    30      Px                   0.241     0.241     0.000
     In    30      Py                   0.241     0.241     0.000
     In    30      Pz                   0.244     0.244     0.000
     In    30      S                   -0.265    -0.265    -0.000
     In    31      Dzz                  1.000     1.000    -0.000
     In    31      Dzy                  0.998     0.998     0.000
     In    31      Dzx                  0.998     0.998     0.000
     In    31      Dxx-yy               1.000     1.000     0.000
     In    31      Dxy                  0.998     0.998     0.000
     In    31      S                    0.733     0.733     0.000
     In    31      Px                   0.241     0.241     0.000
     In    31      Py                   0.241     0.241     0.000
     In    31      Pz                   0.241     0.241     0.000
     In    31      S                   -0.271    -0.271    -0.000
     In    32      Dzz                  1.000     1.000     0.000
     In    32      Dzy                  0.998     0.998     0.000
     In    32      Dzx                  0.998     0.998     0.000
     In    32      Dxx-yy               1.000     1.000    -0.000
     In    32      Dxy                  0.998     0.998     0.000
     In    32      S                    0.711     0.711    -0.000
     In    32      Px                   0.241     0.241     0.000
     In    32      Py                   0.244     0.244    -0.000
     In    32      Pz                   0.241     0.241     0.000
     In    32      S                   -0.265    -0.265     0.000
     In    33      Dzz                  0.997     0.997    -0.000
     In    33      Dzy                  0.999     0.999    -0.000
     In    33      Dzx                  0.999     0.999    -0.000
     In    33      Dxx-yy               0.997     0.997    -0.000
     In    33      Dxy                  0.999     0.999    -0.000
     In    33      S                    0.704     0.704    -0.000
     In    33      Px                   0.241     0.241     0.000
     In    33      Py                   0.241     0.241    -0.000
     In    33      Pz                   0.241     0.241    -0.000
     In    33      S                   -0.010    -0.010     0.000
  ---------------------------------------------------------------
                           Total:     294.500   294.500    -0.000
  ---------------------------------------------------------------

     Atomic Populations (Mulliken)
     -----------------------------
Species          Ion Spin      s       p       d       f      Total   Charge(e)   Spin(hbar/2)
==============================================================================================
  P               1   up:     0.870   1.959   0.000   0.000   2.828    -0.657        0.000
                  1   dn:     0.870   1.958   0.000   0.000   2.828
  P               2   up:     0.887   1.923   0.000   0.000   2.811    -0.621       -0.000
                  2   dn:     0.887   1.923   0.000   0.000   2.811
  P               3   up:     0.870   1.958   0.000   0.000   2.828    -0.657        0.000
                  3   dn:     0.870   1.958   0.000   0.000   2.828
  P               4   up:     0.867   1.970   0.000   0.000   2.836    -0.673        0.000
                  4   dn:     0.867   1.970   0.000   0.000   2.836
  P               5   up:     0.887   1.923   0.000   0.000   2.811    -0.622        0.000
                  5   dn:     0.887   1.923   0.000   0.000   2.811
  P               6   up:     0.868   1.968   0.000   0.000   2.836    -0.672       -0.000
                  6   dn:     0.868   1.968   0.000   0.000   2.836
  P               7   up:     0.867   1.969   0.000   0.000   2.835    -0.671        0.000
                  7   dn:     0.867   1.969   0.000   0.000   2.835
  P               8   up:     0.869   1.967   0.000   0.000   2.836    -0.672        0.000
                  8   dn:     0.869   1.967   0.000   0.000   2.836
  P               9   up:     0.867   1.969   0.000   0.000   2.835    -0.671        0.000
                  9   dn:     0.867   1.969   0.000   0.000   2.835
  P              10   up:     0.868   1.968   0.000   0.000   2.836    -0.672        0.000
                 10   dn:     0.868   1.968   0.000   0.000   2.836
  P              11   up:     0.887   1.923   0.000   0.000   2.811    -0.621        0.000
                 11   dn:     0.887   1.923   0.000   0.000   2.811
  P              12   up:     0.869   1.967   0.000   0.000   2.836    -0.672        0.000
                 12   dn:     0.869   1.967   0.000   0.000   2.836
  P              13   up:     0.868   1.968   0.000   0.000   2.836    -0.672       -0.000
                 13   dn:     0.868   1.968   0.000   0.000   2.836
  P              14   up:     0.866   1.971   0.000   0.000   2.837    -0.675        0.000
                 14   dn:     0.866   1.971   0.000   0.000   2.837
  P              15   up:     0.868   1.968   0.000   0.000   2.836    -0.672        0.000
                 15   dn:     0.868   1.968   0.000   0.000   2.836
  P              16   up:     0.872   1.956   0.000   0.000   2.828    -0.656        0.000
                 16   dn:     0.872   1.956   0.000   0.000   2.828
  P              17   up:     0.867   1.969   0.000   0.000   2.835    -0.671       -0.000
                 17   dn:     0.867   1.969   0.000   0.000   2.835
  P              18   up:     0.870   1.958   0.000   0.000   2.828    -0.657        0.000
                 18   dn:     0.870   1.958   0.000   0.000   2.828
  P              19   up:     0.867   1.969   0.000   0.000   2.835    -0.671        0.000
                 19   dn:     0.867   1.969   0.000   0.000   2.835
  P              20   up:     0.869   1.967   0.000   0.000   2.835    -0.671        0.000
                 20   dn:     0.869   1.967   0.000   0.000   2.835
  P              21   up:     0.868   1.968   0.000   0.000   2.836    -0.672       -0.000
                 21   dn:     0.868   1.968   0.000   0.000   2.836
  P              22   up:     0.867   1.969   0.000   0.000   2.835    -0.671        0.000
                 22   dn:     0.867   1.969   0.000   0.000   2.835
  P              23   up:     0.867   1.969   0.000   0.000   2.837    -0.673        0.000
                 23   dn:     0.867   1.969   0.000   0.000   2.837
  P              24   up:     0.867   1.970   0.000   0.000   2.836    -0.673        0.000
                 24   dn:     0.867   1.970   0.000   0.000   2.836
  P              25   up:     0.867   1.969   0.000   0.000   2.837    -0.673        0.000
                 25   dn:     0.867   1.969   0.000   0.000   2.837
  P              26   up:     0.867   1.969   0.000   0.000   2.835    -0.671        0.000
                 26   dn:     0.867   1.969   0.000   0.000   2.835
  P              27   up:     0.868   1.968   0.000   0.000   2.836    -0.672        0.000
                 27   dn:     0.868   1.968   0.000   0.000   2.836
  P              28   up:     0.867   1.970   0.000   0.000   2.836    -0.673        0.000
                 28   dn:     0.867   1.970   0.000   0.000   2.836
  P              29   up:     0.866   1.971   0.000   0.000   2.837    -0.675        0.000
                 29   dn:     0.866   1.971   0.000   0.000   2.837
  P              30   up:     0.867   1.969   0.000   0.000   2.837    -0.673        0.000
                 30   dn:     0.867   1.969   0.000   0.000   2.837
  P              31   up:     0.866   1.971   0.000   0.000   2.837    -0.675        0.000
                 31   dn:     0.866   1.971   0.000   0.000   2.837
  P              32   up:     0.869   1.967   0.000   0.000   2.836    -0.672       -0.000
                 32   dn:     0.869   1.967   0.000   0.000   2.836
  In              1   up:     0.489   0.709   4.994   0.000   6.192     0.615       -0.000
                  1   dn:     0.489   0.709   4.994   0.000   6.192
  In              2   up:     0.489   0.709   4.994   0.000   6.192     0.615       -0.000
                  2   dn:     0.489   0.709   4.994   0.000   6.192
  In              3   up:     0.426   0.724   4.995   0.000   6.145     0.711        0.000
                  3   dn:     0.426   0.724   4.995   0.000   6.145
  In              4   up:     0.489   0.709   4.994   0.000   6.192     0.615       -0.000
                  4   dn:     0.489   0.709   4.994   0.000   6.192
  In              5   up:     0.443   0.724   4.994   0.000   6.161     0.677        0.000
                  5   dn:     0.443   0.724   4.994   0.000   6.161
  In              6   up:     0.451   0.722   4.995   0.000   6.167     0.665       -0.000
                  6   dn:     0.451   0.722   4.995   0.000   6.167
  In              7   up:     0.452   0.737   4.994   0.000   6.183     0.635        0.000
                  7   dn:     0.452   0.737   4.994   0.000   6.183
  In              8   up:     0.443   0.724   4.994   0.000   6.161     0.677        0.000
                  8   dn:     0.443   0.724   4.994   0.000   6.161
  In              9   up:     0.443   0.724   4.994   0.000   6.161     0.677        0.000
                  9   dn:     0.443   0.724   4.994   0.000   6.161
  In             10   up:     0.443   0.724   4.994   0.000   6.161     0.677       -0.000
                 10   dn:     0.443   0.724   4.994   0.000   6.161
  In             11   up:     0.452   0.737   4.994   0.000   6.183     0.635        0.000
                 11   dn:     0.452   0.737   4.994   0.000   6.183
  In             12   up:     0.451   0.722   4.995   0.000   6.167     0.665       -0.000
                 12   dn:     0.451   0.722   4.995   0.000   6.167
  In             13   up:     0.447   0.728   4.994   0.000   6.170     0.660        0.000
                 13   dn:     0.447   0.728   4.994   0.000   6.170
  In             14   up:     0.452   0.726   4.994   0.000   6.172     0.655       -0.000
                 14   dn:     0.453   0.726   4.994   0.000   6.173
  In             15   up:     0.444   0.722   4.994   0.000   6.160     0.680        0.000
                 15   dn:     0.443   0.722   4.994   0.000   6.160
  In             16   up:     0.452   0.726   4.994   0.000   6.172     0.655       -0.000
                 16   dn:     0.453   0.726   4.994   0.000   6.173
  In             17   up:     0.451   0.722   4.995   0.000   6.167     0.665       -0.000
                 17   dn:     0.451   0.722   4.995   0.000   6.167
  In             18   up:     0.443   0.724   4.994   0.000   6.161     0.677       -0.000
                 18   dn:     0.443   0.724   4.994   0.000   6.161
  In             19   up:     0.452   0.737   4.994   0.000   6.183     0.635        0.000
                 19   dn:     0.452   0.737   4.994   0.000   6.183
  In             20   up:     0.443   0.724   4.994   0.000   6.161     0.677        0.000
                 20   dn:     0.443   0.724   4.994   0.000   6.161
  In             21   up:     0.452   0.726   4.994   0.000   6.172     0.655       -0.000
                 21   dn:     0.453   0.726   4.994   0.000   6.173
  In             22   up:     0.452   0.726   4.994   0.000   6.172     0.655       -0.000
                 22   dn:     0.453   0.726   4.994   0.000   6.173
  In             23   up:     0.444   0.722   4.994   0.000   6.160     0.680        0.000
                 23   dn:     0.443   0.722   4.994   0.000   6.160
  In             24   up:     0.447   0.728   4.994   0.000   6.170     0.660        0.000
                 24   dn:     0.447   0.728   4.994   0.000   6.170
  In             25   up:     0.452   0.726   4.994   0.000   6.172     0.655       -0.000
                 25   dn:     0.453   0.726   4.994   0.000   6.172
  In             26   up:     0.447   0.728   4.994   0.000   6.170     0.660       -0.000
                 26   dn:     0.448   0.728   4.994   0.000   6.170
  In             27   up:     0.444   0.722   4.994   0.000   6.160     0.680        0.000
                 27   dn:     0.443   0.722   4.994   0.000   6.160
  In             28   up:     0.452   0.726   4.994   0.000   6.172     0.655       -0.000
                 28   dn:     0.453   0.726   4.994   0.000   6.173
  In             29   up:     0.446   0.727   4.994   0.000   6.167     0.666        0.000
                 29   dn:     0.446   0.727   4.994   0.000   6.167
  In             30   up:     0.446   0.727   4.994   0.000   6.167     0.666       -0.000
                 30   dn:     0.446   0.727   4.994   0.000   6.167
  In             31   up:     0.462   0.722   4.995   0.000   6.178     0.643        0.000
                 31   dn:     0.462   0.722   4.995   0.000   6.178
  In             32   up:     0.446   0.727   4.994   0.000   6.167     0.666        0.000
                 32   dn:     0.446   0.727   4.994   0.000   6.167
  In             33   up:     0.693   0.723   4.991   0.000   6.407     0.185       -0.000
                 33   dn:     0.693   0.723   4.991   0.000   6.407
==============================================================================================

                 Bond                   Population        Spin       Length (A)
================================================================================
              P 32 -- In 1                   0.81        -0.00          2.47359
              P 12 -- In 2                   0.81        -0.00          2.47359
              P 8  -- In 4                   0.81        -0.00          2.47359
              P 31 -- In 22                  0.67         0.00          2.52434
              P 29 -- In 28                  0.67         0.00          2.52434
              P 14 -- In 16                  0.67         0.00          2.52434
              P 14 -- In 14                  0.67         0.00          2.52434
              P 31 -- In 21                  0.67         0.00          2.52434
              P 29 -- In 25                  0.67         0.00          2.52434
              P 5  -- In 7                   0.53         0.00          2.53258
              P 2  -- In 19                  0.53         0.00          2.53258
              P 11 -- In 11                  0.53         0.00          2.53258
              P 18 -- In 1                   0.67        -0.00          2.53614
              P 3  -- In 4                   0.67        -0.00          2.53614
              P 1  -- In 2                   0.67         0.00          2.53614
              P 17 -- In 19                  0.60        -0.00          2.53669
              P 22 -- In 7                   0.60         0.00          2.53669
              P 9  -- In 11                  0.60        -0.00          2.53669
              P 26 -- In 11                  0.60        -0.00          2.53669
              P 19 -- In 19                  0.60        -0.00          2.53669
              P 7  -- In 7                   0.60        -0.00          2.53669
              P 28 -- In 11                  0.64         0.00          2.53759
              P 24 -- In 7                   0.64        -0.00          2.53759
              P 4  -- In 19                  0.64         0.00          2.53759
              P 22 -- In 24                  0.65         0.00          2.54223
              P 17 -- In 24                  0.65         0.00          2.54223
              P 26 -- In 26                  0.65        -0.00          2.54223
              P 9  -- In 13                  0.65         0.00          2.54223
              P 7  -- In 13                  0.65         0.00          2.54223
              P 19 -- In 26                  0.65         0.00          2.54223
              P 26 -- In 28                  0.67         0.00          2.54297
              P 9  -- In 16                  0.67         0.00          2.54297
              P 19 -- In 25                  0.67        -0.00          2.54297
              P 7  -- In 14                  0.67         0.00          2.54297
              P 22 -- In 22                  0.67         0.00          2.54297
              P 17 -- In 21                  0.67        -0.00          2.54297
              P 20 -- In 24                  0.67         0.00          2.54386
              P 20 -- In 26                  0.67         0.00          2.54386
              P 20 -- In 13                  0.67        -0.00          2.54386
              P 25 -- In 27                  0.68         0.00          2.54389
              P 23 -- In 23                  0.68         0.00          2.54389
              P 30 -- In 15                  0.68         0.00          2.54389
              P 27 -- In 28                  0.65         0.00          2.54512
              P 15 -- In 16                  0.65        -0.00          2.54512
              P 13 -- In 14                  0.65        -0.00          2.54512
              P 10 -- In 25                  0.65         0.00          2.54512
              P 21 -- In 22                  0.65         0.00          2.54512
              P 6  -- In 21                  0.65        -0.00          2.54512
              P 19 -- In 20                  0.67        -0.00          2.54537
              P 7  -- In 8                   0.67        -0.00          2.54537
              P 9  -- In 10                  0.67        -0.00          2.54537
              P 26 -- In 9                   0.67        -0.00          2.54537
              P 17 -- In 18                  0.67         0.00          2.54537
              P 22 -- In 5                   0.67        -0.00          2.54537
              P 28 -- In 32                  0.66        -0.00          2.54580
              P 24 -- In 30                  0.66        -0.00          2.54580
              P 4  -- In 29                  0.66        -0.00          2.54580
              P 1  -- In 8                   0.65        -0.00          2.54629
              P 18 -- In 20                  0.65        -0.00          2.54629
              P 1  -- In 5                   0.65        -0.00          2.54629
              P 3  -- In 9                   0.65        -0.00          2.54629
              P 18 -- In 18                  0.65        -0.00          2.54629
              P 3  -- In 10                  0.65        -0.00          2.54629
              P 21 -- In 23                  0.66        -0.00          2.54692
              P 13 -- In 15                  0.66         0.00          2.54692
              P 27 -- In 27                  0.66        -0.00          2.54692
              P 15 -- In 15                  0.66        -0.00          2.54693
              P 6  -- In 23                  0.66         0.00          2.54693
              P 10 -- In 27                  0.66         0.00          2.54693
              P 32 -- In 15                  0.66        -0.00          2.54875
              P 8  -- In 23                  0.66        -0.00          2.54875
              P 12 -- In 27                  0.66        -0.00          2.54875
              P 21 -- In 20                  0.65        -0.00          2.54882
              P 6  -- In 8                   0.65        -0.00          2.54882
              P 27 -- In 18                  0.65        -0.00          2.54882
              P 15 -- In 5                   0.65        -0.00          2.54882
              P 13 -- In 9                   0.65        -0.00          2.54882
              P 10 -- In 10                  0.65        -0.00          2.54882
              P 12 -- In 21                  0.60         0.00          2.54922
              P 8  -- In 25                  0.60         0.00          2.54922
              P 32 -- In 22                  0.60         0.00          2.54922
              P 32 -- In 28                  0.60         0.00          2.54922
              P 8  -- In 14                  0.60         0.00          2.54922
              P 12 -- In 16                  0.60         0.00          2.54922
              P 30 -- In 32                  0.65        -0.00          2.54935
              P 30 -- In 30                  0.65        -0.00          2.54935
              P 25 -- In 29                  0.65        -0.00          2.54935
              P 23 -- In 29                  0.65        -0.00          2.54935
              P 25 -- In 32                  0.65        -0.00          2.54935
              P 23 -- In 30                  0.65        -0.00          2.54935
              P 29 -- In 30                  0.67         0.00          2.55036
              P 31 -- In 32                  0.67         0.00          2.55036
              P 14 -- In 29                  0.67         0.00          2.55036
              P 14 -- In 31                  0.62        -0.00          2.55049
              P 29 -- In 31                  0.62        -0.00          2.55049
              P 31 -- In 31                  0.62        -0.00          2.55049
              P 10 -- In 12                  0.64        -0.00          2.55159
              P 6  -- In 6                   0.64         0.00          2.55159
              P 13 -- In 12                  0.64        -0.00          2.55159
              P 27 -- In 17                  0.64        -0.00          2.55159
              P 15 -- In 6                   0.64         0.00          2.55159
              P 21 -- In 17                  0.64        -0.00          2.55159
              P 30 -- In 13                  0.66        -0.00          2.55165
              P 25 -- In 26                  0.66         0.00          2.55165
              P 23 -- In 24                  0.66         0.00          2.55166
              P 24 -- In 9                   0.65        -0.00          2.55214
              P 28 -- In 5                   0.65        -0.00          2.55214
              P 4  -- In 10                  0.65        -0.00          2.55214
              P 4  -- In 8                   0.65        -0.00          2.55214
              P 24 -- In 20                  0.65        -0.00          2.55214
              P 28 -- In 18                  0.65        -0.00          2.55214
              P 2  -- In 17                  0.62         0.00          2.55920
              P 11 -- In 12                  0.62         0.00          2.55920
              P 5  -- In 6                   0.62        -0.00          2.55920
              P 3  -- In 3                   0.68        -0.00          2.56492
              P 18 -- In 3                   0.68        -0.00          2.56492
              P 1  -- In 3                   0.68         0.00          2.56492
              P 16 -- In 17                  0.63         0.00          2.57499
              P 16 -- In 12                  0.63        -0.00          2.57499
              P 16 -- In 6                   0.63        -0.00          2.57499
              P 20 -- In 3                   0.60         0.00          2.57725
              P 16 -- In 31                  0.57         0.00          2.59365
              P 5  -- In 33                  0.36         0.00          2.60331
              P 2  -- In 33                  0.36         0.00          2.60331
              P 11 -- In 33                  0.36         0.00          2.60332
              P 2  -- In 4                   0.30         0.00          2.80826
              P 5  -- In 4                   0.30         0.00          2.80826
              P 11 -- In 2                   0.30         0.00          2.80826
              P 11 -- In 1                   0.30        -0.00          2.80826
              P 5  -- In 1                   0.30         0.00          2.80826
              P 2  -- In 2                   0.30         0.00          2.80826
             In 4  -- In 33                 -0.71        -0.00          2.82770
             In 1  -- In 33                 -0.71        -0.00          2.82770
             In 2  -- In 33                 -0.71         0.00          2.82770
================================================================================

 Hirshfeld supercell size:           2           2           2
Standard grid dimensions: 240 240 240
Fine grid dimensions:     240 240 240


     Hirshfeld Analysis
     ------------------
Species   Ion     Hirshfeld Charge (e)  Spin (hbar/2)
===================================================
  P        1                -0.23        0.00
  P        2                -0.24       -0.00
  P        3                -0.23        0.00
  P        4                -0.24        0.00
  P        5                -0.24       -0.00
  P        6                -0.24       -0.00
  P        7                -0.24        0.00
  P        8                -0.23       -0.00
  P        9                -0.24        0.00
  P       10                -0.24       -0.00
  P       11                -0.24       -0.00
  P       12                -0.23       -0.00
  P       13                -0.24       -0.00
  P       14                -0.24       -0.00
  P       15                -0.24       -0.00
  P       16                -0.24       -0.00
  P       17                -0.24        0.00
  P       18                -0.23        0.00
  P       19                -0.24        0.00
  P       20                -0.24        0.00
  P       21                -0.24       -0.00
  P       22                -0.24        0.00
  P       23                -0.24       -0.00
  P       24                -0.24        0.00
  P       25                -0.24       -0.00
  P       26                -0.24        0.00
  P       27                -0.24       -0.00
  P       28                -0.24        0.00
  P       29                -0.24       -0.00
  P       30                -0.24       -0.00
  P       31                -0.24       -0.00
  P       32                -0.23       -0.00
  In       1                 0.24       -0.00
  In       2                 0.24       -0.00
  In       3                 0.24        0.00
  In       4                 0.24       -0.00
  In       5                 0.24        0.00
  In       6                 0.23       -0.00
  In       7                 0.22        0.00
  In       8                 0.24        0.00
  In       9                 0.24        0.00
  In      10                 0.24        0.00
  In      11                 0.22        0.00
  In      12                 0.23       -0.00
  In      13                 0.23        0.00
  In      14                 0.24       -0.00
  In      15                 0.24       -0.00
  In      16                 0.24       -0.00
  In      17                 0.23       -0.00
  In      18                 0.24        0.00
  In      19                 0.22        0.00
  In      20                 0.24        0.00
  In      21                 0.24       -0.00
  In      22                 0.24       -0.00
  In      23                 0.24       -0.00
  In      24                 0.23        0.00
  In      25                 0.24       -0.00
  In      26                 0.23        0.00
  In      27                 0.24       -0.00
  In      28                 0.24       -0.00
  In      29                 0.24       -0.00
  In      30                 0.24       -0.00
  In      31                 0.23       -0.00
  In      32                 0.24       -0.00
  In      33                 0.07       -0.00
===================================================

 
 A BibTeX formatted list of references used in this run has been written to 
 In_Interstitial_Migration_Tetra_Octa_Singlepoints_4.bib
 
Initialisation time =     31.18 s
Calculation time    =   8944.89 s
Finalisation time   =    169.57 s
Total time          =   9145.64 s
Peak Memory Use     = 9709492 kB
 
Overall parallel efficiency rating: Terrible (34%)
 
Data was distributed by:-
G-vector (3-way); efficiency rating: Poor (37%)
k-point (36-way); efficiency rating: Very good (83%)
