 +-------------------------------------------------+
 |                                                 |
 |      CCC   AA    SSS  TTTTT  EEEEE  PPPP        |
 |     C     A  A  S       T    E      P   P       |
 |     C     AAAA   SS     T    EEE    PPPP        |
 |     C     A  A     S    T    E      P           |
 |      CCC  A  A  SSS     T    EEEEE  P           |
 |                                                 |
 +-------------------------------------------------+
 |                                                 |
 | Welcome to Academic Release CASTEP version 24.1 |
 | Ab Initio Total Energy Program                  |
 |                                                 |
 | Authors:                                        |
 | M. Segall, M. Probert, C. Pickard, P. Hasnip,   |
 | S. Clark, K. Refson, J. R. Yates,               |
 | A. Bartok-Partay, M. Payne                      |
 |                                                 |
 | Contributors:                                   |
 | P. Lindan, P. Haynes, J. White, V. Milman,      |
 | N. Govind, M. Gibson, P. Tulip, V. Cocula,      |
 | B. Montanari, D. Quigley, M. Glover,            |
 | L. Bernasconi, A. Perlov, M. Plummer,           |
 | E. McNellis, J. Meyer, J. Gale, D. Jochym       |
 | J. Aarons, B. Walker, R. Gillen, D. Jones       |
 | T. Green, I. J. Bush, C. J. Armstrong,          |
 | E. J. Higgins, E. L. Brown, M. S. McFly,        |
 | J. Wilkins, B-C. Shih, P. J. P. Byrne,          |
 | R. J. Maurer, J. C. Womack, J. Dziedzic,        |
 | L. LeBlanc, T. K. Stenczel, J. Kermode,         |
 | S. Sturniolo, B. Shi, B. Durham, M. Evans,      |
 | M. J. Smith, A. Tamerus, Z. Hawkhead,           |
 | V. Ravindran, T. Hollins, S. A. Joyce,          |
 | R. T. Strong, A. M. Reilly, S. J. Donaldson     |
 |                                                 |
 | Copyright (c) 2000 - 2023                       |
 |                                                 |
 |     Distributed under license from Cambridge    |
 |     Enterprise for academic use only.           |
 |                                                 |
 | Please cite                                     |
 |                                                 |
 |     "First principles methods using CASTEP"     |
 |                                                 |
 |         Zeitschrift fuer Kristallographie       |
 |           220(5-6) pp. 567-570 (2005)           |
 |                                                 |
 | S. J. Clark, M. D. Segall, C. J. Pickard,       |
 | P. J. Hasnip, M. J. Probert, K. Refson,         |
 | M. C. Payne                                     |
 |                                                 |
 |       in all publications arising from          |
 |              your use of CASTEP                 |
 |                                                 |
 +-------------------------------------------------+
 |                                                 |
 |              http://www.castep.org              |
 |                                                 |
 +-------------------------------------------------+



 Compiled for  GNU 11.2.0 on 04-04-2024 18:39:17
 from code version 6355fd106 Castep241_branch Thu Mar 7 17:56:19 2024 +0000
 Compiler: GNU Fortran 11.2.0; Optimisation: FAST
 Comms   : MPI VERSION : CRAY MPICH version 8.1.23.14 (ANL base 3.4a2)
 MATHLIBS: default (LAPACK version 3.10.1)
 FFT Lib : fftw3 version commercial-fftw-3.3.10-sse2-avx-avx2-avx2_128
 Fundamental constants values: CODATA 2018

 Run started: Wed, 30 Jul 2025 13:36:49 +0100

 Atomic calculation performed for P: 1s2 2s2 2p6 3s2 3p3

 Converged in 47 iterations to an ae energy of -9309.074 eV

   ============================================================                
   | Pseudopotential Report - Date of generation 30-07-2025   |                
   ------------------------------------------------------------                
   | Element: P Ionic charge:  5.00 Level of theory: RSCAN    |                
   | Atomic Solver: Koelling-Harmon                           |                
   |                                                          |                
   |               Reference Electronic Structure             |                
   |         Orbital         Occupation         Energy        |                
   |            3s              2.000           -0.535        |                
   |            3p              3.000           -0.209        |                
   |                                                          |                
   |                 Pseudopotential Definition               |                
   |        Beta     l      e      Rc     scheme   norm       |                
   |          1      0   -0.535   1.807     qc      0         |                
   |          2      0    0.250   1.807     qc      0         |                
   |          3      1   -0.209   1.807     qc      0         |                
   |          4      1    0.250   1.807     qc      0         |                
   |          5      2    0.000   1.807     qc      0         |                
   |          6      2    0.250   1.807     qc      0         |                
   |         loc     3    0.000   1.807     pn      0         |                
   |                                                          |                
   | Augmentation charge Rinner = 1.263                       |                
   | Partial core correction Rc = 1.263                       |                
   ------------------------------------------------------------                
   | "3|1.8|4|4|5|30:31:32"                                   |                
   ------------------------------------------------------------                
   |      Author: Chris J. Pickard, Cambridge University      |                
   ============================================================                
 Warning: otfg_output_psp cannot write out meta-GGA pseudopotentials presently.

 Atomic calculation performed for In:
 1s2 2s2 2p6 3s2 3p6 3d10 4s2 4p6 4d10 5s2 5p1

 Converged in 84 iterations to an ae energy of -160093.328 eV

   ============================================================                
   | Pseudopotential Report - Date of generation 30-07-2025   |                
   ------------------------------------------------------------                
   | Element: In Ionic charge: 13.00 Level of theory: RSCAN   |                
   | Atomic Solver: Koelling-Harmon                           |                
   |                                                          |                
   |               Reference Electronic Structure             |                
   |         Orbital         Occupation         Energy        |                
   |            4d             10.000           -0.711        |                
   |            5s              2.000           -0.313        |                
   |            5p              1.000           -0.095        |                
   |                                                          |                
   |                 Pseudopotential Definition               |                
   |        Beta     l      e      Rc     scheme   norm       |                
   |          1      0   -0.313   2.501     qc      0         |                
   |          2      0    0.250   2.501     qc      0         |                
   |          3      1   -0.095   2.501     qc      0         |                
   |          4      1    0.250   2.501     qc      0         |                
   |          5      2   -0.711   2.207     qc      0         |                
   |          6      2    0.250   2.207     qc      0         |                
   |         loc     3    0.000   2.501     pn      0         |                
   |                                                          |                
   | Augmentation charge Rinner = 1.504                       |                
   | Partial core correction Rc = 1.504                       |                
   ------------------------------------------------------------                
   | "3|2.5|2.5|1.5|7|8|9|50:51:42U2.2U2.2"                   |                
   ------------------------------------------------------------                
   |      Author: Chris J. Pickard, Cambridge University      |                
   ============================================================                
 Warning: otfg_output_psp cannot write out meta-GGA pseudopotentials presently.

 Pseudo atomic calculation performed for P 3s2 3p3

 Converged in 23 iterations to a total energy of -208.0292 eV

 Pseudo atomic calculation performed for In 4d10 5s2 5p1

 Converged in 42 iterations to a total energy of -1747.4501 eV
 Calculation parallelised over 120 processes.
 Data is distributed by G-vector(6-way) and k-point(20-way)
 Each process may use up to 16 threads.

 ************************************ Title ************************************
 

 ***************************** General Parameters ******************************
  
 output verbosity                               : normal  (1)
 write checkpoint data to                       : 90deg_Singlepoints_5.check
 type of calculation                            : single point energy
 stress calculation                             : off
 density difference calculation                 : off
 electron localisation func (ELF) calculation   : off
 Hirshfeld analysis                             : on
 polarisation (Berry phase) analysis            : off
 molecular orbital projected DOS                : off
 deltaSCF calculation                           : off
 unlimited duration calculation
 timing information                             : on
 memory usage estimate                          : on
 write extra output files                       : on
 write final potential to formatted file        : off
 write final density to formatted file          : off
 write BibTeX reference list                    : on
 write OTFG pseudopotential files               : on
 write electrostatic potential file             : on
 write bands file                               : on
 checkpoint writing                             : off
  
 output         length unit                     : A
 output           mass unit                     : amu
 output           time unit                     : ps
 output         charge unit                     : e
 output           spin unit                     : hbar/2
 output         energy unit                     : eV
 output          force unit                     : eV/A
 output       velocity unit                     : A/ps
 output       pressure unit                     : GPa
 output     inv_length unit                     : 1/A
 output      frequency unit                     : cm-1
 output force constant unit                     : eV/A**2
 output         volume unit                     : A**3
 output   IR intensity unit                     : (D/A)**2/amu
 output         dipole unit                     : D
 output         efield unit                     : eV/A/e
 output        entropy unit                     : J/mol/K
 output    efield chi2 unit                     : pm/V
  
 wavefunctions paging                           : none
 random number generator seed                   :  133649981
 data distribution                              : optimal for this architecture
 optimization strategy                          : balance speed and memory

 *********************** Exchange-Correlation Parameters ***********************
  
 using functional                               : RSCAN
 relativistic treatment                         : Koelling-Harmon
 DFT+D: Semi-empirical dispersion correction    : off

 ************************* Pseudopotential Parameters **************************
  
 pseudopotential representation                 : reciprocal space
 <beta|phi> representation                      : reciprocal space
 spin-orbit coupling                            : off

 **************************** Basis Set Parameters *****************************
  
 plane wave basis set cut-off                   :   900.0000   eV
 size of standard grid                          :     2.0000
 size of   fine   gmax                          :    30.7390   1/A
 finite basis set correction                    : none

 **************************** Electronic Parameters ****************************
  
 number of  electrons                           :  864.0    
 net charge of system                           :  0.000    
 treating system as non-spin-polarized
 number of bands                                :        518

 ********************* Electronic Minimization Parameters **********************
  
 Method: Treating system as metallic with density mixing treatment of electrons,
         and number of  SD  steps               :          1
         and number of  CG  steps               :          4
  
 total energy / atom convergence tol.           : 0.1000E-07   eV
 eigen-energy convergence tolerance             : 0.2222E-08   eV
 max force / atom convergence tol.              : ignored
 convergence tolerance window                   :          3   cycles
 max. number of SCF cycles                      :        100
 number of fixed-spin iterations                :         10
 smearing scheme                                : Gaussian
 smearing width                                 : 0.2000       eV
 Fermi energy convergence tolerance             : 0.2721E-13   eV
 periodic dipole correction                     : NONE

 ************************** Density Mixing Parameters **************************
  
 density-mixing scheme                          : Pulay
 max. length of mixing history                  :         20
 charge density mixing amplitude                : 0.5000    
 cut-off energy for mixing                      :  900.0       eV

 *********************** Population Analysis Parameters ************************
  
 Population analysis with cutoff                :  3.000       A
 Population analysis output                     : summary and pdos components

 *******************************************************************************
  

                           -------------------------------
                                      Unit Cell
                           -------------------------------
        Real Lattice(A)                      Reciprocal Lattice(1/A)
    14.4540490    20.4411120     0.0000000        0.217350353   0.153689910   0.000000000
    14.4540490   -20.4411120     0.0000000        0.217350353  -0.153689910   0.000000000
     0.0000000     0.0000000     4.1725250        0.000000000   0.000000000   1.505847252

                       Lattice parameters(A)       Cell Angles
                    a =     25.035147          alpha =   90.000000
                    b =     25.035147          beta  =   90.000000
                    c =      4.172525          gamma =  109.471220

                       Current cell volume =          2465.602056       A**3
                                   density =             2.838254   AMU/A**3
                                           =             4.713031     g/cm^3

                           -------------------------------
                                     Cell Contents
                           -------------------------------
                         Total number of ions in cell =   96
                      Total number of species in cell =    2
                        Max number of any one species =   48

            xxxxxxxxxxxxxxxxxxxxxxxxxxxxxxxxxxxxxxxxxxxxxxxxxxxxxxxxxxxx
            x  Element    Atom        Fractional coordinates of atoms  x
            x            Number           u          v          w      x
            x----------------------------------------------------------x
            x  P            1         0.274377   0.308510   0.139350   x 
            x  P            2         0.202441   0.234715   0.346351   x 
            x  P            3         0.379599   0.240042   0.533355   x 
            x  P            4         0.507899   0.364473   0.032218   x 
            x  P            5         0.410365   0.104402   0.016373   x 
            x  P            6         0.538252   0.227778   0.515969   x 
            x  P            7         0.572702   0.094387   0.011061   x 
            x  P            8         0.448170   0.970953   0.511489   x 
            x  P            9         0.609953   0.961112   0.510735   x 
            x  P           10         0.734911   0.086221   0.001733   x 
            x  P           11         0.643745   0.827431   0.012623   x 
            x  P           12         0.774708   0.954970   0.501841   x 
            x  P           13         0.533789   0.555120   0.034703   x 
            x  P           14         0.405759   0.428930   0.563304   x 
            x  P           15         0.633106   0.488222   0.523102   x 
            x  P           16         0.756801   0.610047   0.011278   x 
            x  P           17         0.664270   0.351890   0.010122   x 
            x  P           18         0.790207   0.475799   0.501480   x 
            x  P           19         0.822296   0.343046  -0.004030   x 
            x  P           20         0.697975   0.218346   0.504851   x 
            x  P           21         0.858927   0.212576   0.488723   x 
            x  P           22         0.981401   0.337018  -0.019146   x 
            x  P           23         0.899334   0.085305  -0.020577   x 
            x  P           24         0.021796   0.210127   0.471626   x 
            x  P           25         0.787095   0.804771   0.025678   x 
            x  P           26         0.660245   0.680224   0.522274   x 
            x  P           27         0.885081   0.723281   0.498358   x 
            x  P           28         0.002306   0.851255  -0.021191   x 
            x  P           29         0.918029   0.595931  -0.007131   x 
            x  P           30         0.042823   0.723057   0.480983   x 
            x  P           31         0.075131   0.593901  -0.017430   x 
            x  P           32         0.949194   0.466414   0.488798   x 
            x  P           33         0.106244   0.464542   0.473847   x 
            x  P           34         0.232300   0.587604   0.007809   x 
            x  P           35         0.138118   0.336848  -0.053255   x 
            x  P           36         0.263275   0.455999   0.535972   x 
            x  P           37         0.077203   0.098283  -0.060275   x 
            x  P           38         0.949288   0.968133   0.440288   x 
            x  P           39         0.124266   0.979297   0.472015   x 
            x  P           40         0.249824   0.108625  -0.035915   x 
            x  P           41         0.163389   0.850269  -0.015393   x 
            x  P           42         0.286955   0.976819   0.488209   x 
            x  P           43         0.323956   0.845158   0.001011   x 
            x  P           44         0.200569   0.719536   0.495367   x 
            x  P           45         0.357894   0.711328   0.511961   x 
            x  P           46         0.483033   0.836936   0.014889   x 
            x  P           47         0.388741   0.576410   0.027564   x 
            x  P           48         0.514854   0.701565   0.523921   x 
            x  In           1         0.239999   0.394274   0.038686   x 
            x  In           2         0.122540   0.276523   0.441399   x 
            x  In           3         0.339019   0.321496   0.616574   x 
            x  In           4         0.468004   0.447758   0.058903   x 
            x  In           5         0.354020   0.175280   0.024235   x 
            x  In           6         0.485271   0.300074   0.529607   x 
            x  In           7         0.515468   0.163742   0.015370   x 
            x  In           8         0.390816   0.040137   0.513977   x 
            x  In           9         0.552970   0.030588   0.511155   x 
            x  In          10         0.677167   0.154674   0.005113   x 
            x  In          11         0.587569   0.896993   0.011604   x 
            x  In          12         0.714497   0.022381   0.502611   x 
            x  In          13         0.492211   0.636995   0.026091   x 
            x  In          14         0.367369   0.512742   0.529639   x 
            x  In          15         0.595127   0.572867   0.532771   x 
            x  In          16         0.720637   0.696297   0.021805   x 
            x  In          17         0.612248   0.424496   0.022953   x 
            x  In          18         0.737100   0.546854   0.511228   x 
            x  In          19         0.767708   0.412610   0.001475   x 
            x  In          20         0.642451   0.288157   0.509843   x 
            x  In          21         0.801574   0.279986   0.496064   x 
            x  In          22         0.925474   0.404385  -0.011083   x 
            x  In          23         0.838434   0.149858  -0.011277   x 
            x  In          24         0.962307   0.274979   0.480567   x 
            x  In          25         0.747652   0.890552   0.004253   x 
            x  In          26         0.618937   0.762390   0.514372   x 
            x  In          27         0.842167   0.800161   0.527573   x 
            x  In          28         0.930965   0.904072  -0.063537   x 
            x  In          29         0.861403   0.661846  -0.001549   x 
            x  In          30         0.986896   0.789599   0.480490   x 
            x  In          31         0.019975   0.661578  -0.018619   x 
            x  In          32         0.894162   0.534238   0.493211   x 
            x  In          33         0.051180   0.532289   0.481887   x 
            x  In          34         0.178167   0.657038  -0.004255   x 
            x  In          35         0.082517   0.403383  -0.029139   x 
            x  In          36         0.209389   0.525466   0.508512   x 
            x  In          37         1.003688   0.148551  -0.028032   x 
            x  In          38         0.878945   0.022501   0.479887   x 
            x  In          39         0.054955   0.034885   0.443758   x 
            x  In          40         0.182086   0.165501  -0.120348   x 
            x  In          41         0.105375   0.917071  -0.025932   x 
            x  In          42         0.228662   0.044179   0.466301   x 
            x  In          43         0.266864   0.913516  -0.011221   x 
            x  In          44         0.145125   0.787839   0.485425   x 
            x  In          45         0.303889   0.781904   0.501415   x 
            x  In          46         0.427679   0.907308   0.010998   x 
            x  In          47         0.335859   0.648009   0.012806   x 
            x  In          48         0.461392   0.773055   0.515545   x 
            xxxxxxxxxxxxxxxxxxxxxxxxxxxxxxxxxxxxxxxxxxxxxxxxxxxxxxxxxxxx


                         No user defined ionic velocities

                           -------------------------------
                                   Details of Species
                           -------------------------------

                               Mass of species in AMU
                                    P   30.9737600
                                    In  114.8180000

                          Electric Quadrupole Moment (Barn)
                                    P    1.0000000 No Isotope Defined
                                    In    0.7700000 Isotope115

                          Files used for pseudopotentials:
                                    P 3|1.8|4|4|5|30:31:32
                                    In 3|2.5|2.5|1.5|7|8|9|50:51:42U2.2U2.2

                           -------------------------------
                              k-Points For BZ Sampling
                           -------------------------------
                       MP grid size for SCF calculation is  2  2  8
                            with an offset of   0.250  0.250  0.062
                       Number of kpoints used =            20

                           -------------------------------
                               Symmetry and Constraints
                           -------------------------------

                      Maximum deviation from symmetry =  0.00000         ANG

                      Number of symmetry operations   =           1
                      Number of ionic constraints     =           3
                      Point group of crystal =     1: C1, 1, 1
                      Space group of crystal =     1: P1, P 1

             Set iprint > 1 for details on symmetry rotations/translations

                         Centre of mass is constrained
             Set iprint > 1 for details of linear ionic constraints

                         Number of cell constraints= 0
                         Cell constraints are:  1 2 3 4 5 6

                         External pressure/stress (GPa)
                          0.00000   0.00000   0.00000
                                    0.00000   0.00000
                                              0.00000
 
+---------------- MEMORY AND SCRATCH DISK ESTIMATES PER PROCESS --------------+
|                                                     Memory          Disk    |
| Baseline code, static data and system overhead      368.0 MB         0.0 MB |
| BLAS internal memory storage                          0.0 MB         0.0 MB |
| Model and support data                             3663.9 MB         0.0 MB |
| Electronic energy minimisation requirements         956.3 MB         0.0 MB |
| Force calculation requirements                       70.0 MB         0.0 MB |
|                                               ----------------------------- |
| Approx. total storage required per process         4988.2 MB         0.0 MB |
|                                                                             |
| Requirements will fluctuate during execution and may exceed these estimates |
+-----------------------------------------------------------------------------+
Calculating approximate eigenstates for fixed initial Hamiltonian
Cut-off for approx. calculation is   89.988 eV
Improving approx. states at cut-off of  450.000 eV
Resetting cut-off to  900.000 eV
Calculating total energy with cut-off of  900.000 eV.
------------------------------------------------------------------------ <-- SCF
SCF loop      Energy           Fermi           Energy gain       Timer   <-- SCF
                               energy          per atom          (sec)   <-- SCF
------------------------------------------------------------------------ <-- SCF
Initial  -9.45669453E+004  0.00000000E+000                       359.19  <-- SCF
      1  -9.42027373E+004  3.28440227E+000  -3.79383349E+000     707.21  <-- SCF
      2  -9.42031894E+004  3.28394826E+000   4.70988581E-003     939.10  <-- SCF
      3  -9.43031863E+004  3.43062658E+000   1.04163434E+000    1203.07  <-- SCF
      4  -9.43209664E+004  3.47830306E+000   1.85209595E-001    1574.68  <-- SCF
      5  -9.43118928E+004  3.76813070E+000  -9.45170639E-002    1847.90  <-- SCF
      6  -9.43119690E+004  3.84262454E+000   7.93252465E-004    2106.29  <-- SCF
      7  -9.43116755E+004  3.87508074E+000  -3.05696229E-003    2374.42  <-- SCF
      8  -9.43139184E+004  3.87755029E+000   2.33638681E-002    2629.46  <-- SCF
      9  -9.43138888E+004  3.85843391E+000  -3.08671437E-004    2895.18  <-- SCF
     10  -9.43138857E+004  3.86254645E+000  -3.19879160E-005    3167.62  <-- SCF
     11  -9.43138945E+004  3.86224884E+000   9.15794527E-005    3439.45  <-- SCF
     12  -9.43138950E+004  3.86692983E+000   5.51502701E-006    3713.78  <-- SCF
     13  -9.43138947E+004  3.86641314E+000  -3.07792965E-006    3998.45  <-- SCF
     14  -9.43138947E+004  3.86682650E+000   2.27089135E-008    4273.92  <-- SCF
     15  -9.43138948E+004  3.86699485E+000   2.02612372E-007    4515.18  <-- SCF
     16  -9.43138948E+004  3.86672192E+000   8.94092575E-008    4721.42  <-- SCF
     17  -9.43138948E+004  3.86665156E+000   1.47936115E-008    4934.57  <-- SCF
     18  -9.43138948E+004  3.86663673E+000  -1.34995942E-009    5122.57  <-- SCF
     19  -9.43138948E+004  3.86661734E+000  -8.45706462E-010    5312.57  <-- SCF
------------------------------------------------------------------------ <-- SCF
 
Final energy, E             =  -94313.80400152     eV
Final free energy (E-TS)    =  -94313.89476693     eV
(energies not corrected for finite basis set)
 
NB est. 0K energy (E-0.5TS)      =  -94313.84938422     eV
 

 ************************** Forces **************************
 *                                                          *
 *               Cartesian components (eV/A)                *
 * -------------------------------------------------------- *
 *                         x            y            z      *
 *                                                          *
 * P               1      0.05315     -0.00771     -0.03668 *
 * P               2     -0.01216      0.06456      0.05005 *
 * P               3      0.04048      0.00689     -0.00389 *
 * P               4     -0.06212      0.01548     -0.01498 *
 * P               5      0.01220     -0.01058      0.01783 *
 * P               6     -0.03524     -0.01231      0.00601 *
 * P               7     -0.00564     -0.00820      0.00247 *
 * P               8      0.02754     -0.01665      0.00589 *
 * P               9     -0.00401     -0.03574      0.00081 *
 * P              10     -0.01770      0.01362      0.00353 *
 * P              11     -0.08024     -0.11169      0.00393 *
 * P              12     -0.00428      0.01114      0.01172 *
 * P              13     -0.05274      0.00123      0.01083 *
 * P              14      0.05634      0.02773     -0.00233 *
 * P              15     -0.04478      0.02299     -0.00130 *
 * P              16     -0.02498     -0.03151     -0.00723 *
 * P              17     -0.04132     -0.00213      0.00229 *
 * P              18     -0.04292     -0.00579      0.00398 *
 * P              19     -0.02045      0.00706      0.00651 *
 * P              20     -0.02880      0.03258      0.00968 *
 * P              21     -0.02038     -0.01691     -0.00007 *
 * P              22     -0.00861      0.00751      0.00878 *
 * P              23     -0.01080     -0.06115     -0.01047 *
 * P              24     -0.02977     -0.03053      0.00275 *
 * P              25     -0.66854      0.06143      0.13946 *
 * P              26     -0.21614      0.00891      0.02266 *
 * P              27     -0.07063     -0.01459     -0.00446 *
 * P              28      0.20424      0.16090      0.06559 *
 * P              29     -0.02241      0.01021      0.01046 *
 * P              30      0.01708      0.08032      0.01240 *
 * P              31      0.01033      0.03272     -0.00719 *
 * P              32      0.00003      0.01217      0.00553 *
 * P              33      0.01464      0.01053     -0.01901 *
 * P              34      0.01423      0.00319     -0.00797 *
 * P              35     -0.00722     -0.04151      0.02099 *
 * P              36      0.01133      0.00335     -0.04675 *
 * P              37      0.10696      0.03038     -0.03568 *
 * P              38      0.35678      0.07923     -0.12246 *
 * P              39      0.09363      0.03235     -0.00128 *
 * P              40      0.03110      0.02227      0.01534 *
 * P              41      0.10489      0.09677     -0.00487 *
 * P              42      0.05453      0.01301     -0.00004 *
 * P              43      0.02717      0.02373     -0.00690 *
 * P              44      0.01510      0.02838     -0.00649 *
 * P              45      0.01046      0.00706     -0.00312 *
 * P              46      0.01560      0.00460      0.00891 *
 * P              47     -0.02208      0.01032      0.00511 *
 * P              48     -0.02259     -0.01885      0.00672 *
 * In              1     -0.00324      0.03674      0.00991 *
 * In              2     -0.00625      0.06214     -0.02423 *
 * In              3     -0.02102     -0.04594      0.03646 *
 * In              4     -0.00047      0.01266     -0.02131 *
 * In              5     -0.04040      0.02323     -0.01434 *
 * In              6      0.05121     -0.01254      0.01179 *
 * In              7      0.03949      0.01399     -0.00722 *
 * In              8     -0.02754     -0.01006     -0.01420 *
 * In              9      0.00099     -0.00523     -0.00523 *
 * In             10      0.00900     -0.03153     -0.00199 *
 * In             11     -0.01147      0.00523     -0.00980 *
 * In             12     -0.00166      0.05586      0.00037 *
 * In             13      0.01262      0.02799     -0.01045 *
 * In             14     -0.03206     -0.03996      0.01623 *
 * In             15      0.03090     -0.02468      0.01824 *
 * In             16      0.11226     -0.11364      0.08812 *
 * In             17      0.03986     -0.02310     -0.00870 *
 * In             18      0.05920     -0.05076     -0.00077 *
 * In             19      0.03978     -0.02342      0.00005 *
 * In             20      0.03002     -0.01953      0.00120 *
 * In             21      0.04173     -0.02447     -0.00530 *
 * In             22      0.01743     -0.01415     -0.00391 *
 * In             23      0.02765      0.06386     -0.01069 *
 * In             24      0.02802     -0.03592     -0.00770 *
 * In             25     -0.07002      0.25606      0.01535 *
 * In             26      0.00595      0.07835      0.00023 *
 * In             27      0.83093     -0.31799      0.26075 *
 * In             28     -0.39027      0.06118     -0.36526 *
 * In             29      0.13146     -0.05709      0.01092 *
 * In             30      0.01596     -0.12272      0.01101 *
 * In             31     -0.01145     -0.04250      0.00164 *
 * In             32      0.02561     -0.04014     -0.00090 *
 * In             33      0.00055      0.00395     -0.00022 *
 * In             34     -0.01265     -0.02789      0.00554 *
 * In             35      0.00731     -0.03041      0.02562 *
 * In             36     -0.00081     -0.02741      0.00531 *
 * In             37     -0.00567      0.05515     -0.04649 *
 * In             38      0.01735      0.16819     -0.03229 *
 * In             39     -0.15668     -0.10280     -0.06812 *
 * In             40     -0.04316     -0.04937     -0.01457 *
 * In             41     -0.19593     -0.02083      0.00671 *
 * In             42     -0.07243     -0.04528      0.01181 *
 * In             43     -0.06739      0.00246      0.01113 *
 * In             44     -0.02861     -0.05203      0.00171 *
 * In             45     -0.03032     -0.02296      0.00683 *
 * In             46     -0.03914      0.00264     -0.00150 *
 * In             47      0.00301     -0.01308      0.00335 *
 * In             48     -0.01093      0.00099     -0.00212 *
 *                                                          *
 ************************************************************

 Pseudo atomic calculation performed for P 3s2 3p3

 Converged in 23 iterations to a total energy of -208.0292 eV

 Pseudo atomic calculation performed for In 4d10 5s2 5p1

 Converged in 42 iterations to a total energy of -1747.4501 eV
Charge spilling parameter for spin component 1 = 0.17%

            Orbital Populations       
     Ion    Atom   Orbital             Charge
  -------------------------------------------
      P     1      S                    1.741
      P     1      Px                   1.067
      P     1      Py                   1.354
      P     1      Pz                   1.319
      P     2      S                    1.754
      P     2      Px                   1.057
      P     2      Py                   1.353
      P     2      Pz                   1.312
      P     3      S                    1.746
      P     3      Px                   1.308
      P     3      Py                   1.306
      P     3      Pz                   1.305
      P     4      S                    1.741
      P     4      Px                   1.309
      P     4      Py                   1.322
      P     4      Pz                   1.300
      P     5      S                    1.745
      P     5      Px                   1.312
      P     5      Py                   1.300
      P     5      Pz                   1.307
      P     6      S                    1.740
      P     6      Px                   1.312
      P     6      Py                   1.308
      P     6      Pz                   1.310
      P     7      S                    1.741
      P     7      Px                   1.315
      P     7      Py                   1.304
      P     7      Pz                   1.309
      P     8      S                    1.741
      P     8      Px                   1.317
      P     8      Py                   1.303
      P     8      Pz                   1.307
      P     9      S                    1.742
      P     9      Px                   1.309
      P     9      Py                   1.305
      P     9      Pz                   1.311
      P    10      S                    1.741
      P    10      Px                   1.313
      P    10      Py                   1.309
      P    10      Pz                   1.308
      P    11      S                    1.742
      P    11      Px                   1.302
      P    11      Py                   1.310
      P    11      Pz                   1.307
      P    12      S                    1.748
      P    12      Px                   1.306
      P    12      Py                   1.314
      P    12      Pz                   1.295
      P    13      S                    1.742
      P    13      Px                   1.287
      P    13      Py                   1.312
      P    13      Pz                   1.325
      P    14      S                    1.748
      P    14      Px                   1.278
      P    14      Py                   1.315
      P    14      Pz                   1.320
      P    15      S                    1.739
      P    15      Px                   1.314
      P    15      Py                   1.321
      P    15      Pz                   1.300
      P    16      S                    1.738
      P    16      Px                   1.312
      P    16      Py                   1.317
      P    16      Pz                   1.304
      P    17      S                    1.737
      P    17      Px                   1.313
      P    17      Py                   1.314
      P    17      Pz                   1.308
      P    18      S                    1.734
      P    18      Px                   1.316
      P    18      Py                   1.313
      P    18      Pz                   1.310
      P    19      S                    1.733
      P    19      Px                   1.314
      P    19      Py                   1.317
      P    19      Pz                   1.311
      P    20      S                    1.738
      P    20      Px                   1.315
      P    20      Py                   1.310
      P    20      Pz                   1.309
      P    21      S                    1.734
      P    21      Px                   1.315
      P    21      Py                   1.314
      P    21      Pz                   1.312
      P    22      S                    1.728
      P    22      Px                   1.315
      P    22      Py                   1.324
      P    22      Pz                   1.311
      P    23      S                    1.738
      P    23      Px                   1.303
      P    23      Py                   1.312
      P    23      Pz                   1.315
      P    24      S                    1.731
      P    24      Px                   1.300
      P    24      Py                   1.315
      P    24      Pz                   1.327
      P    25      S                    1.755
      P    25      Px                   1.270
      P    25      Py                   1.307
      P    25      Pz                   1.291
      P    26      S                    1.742
      P    26      Px                   1.286
      P    26      Py                   1.308
      P    26      Pz                   1.329
      P    27      S                    1.728
      P    27      Px                   1.324
      P    27      Py                   1.300
      P    27      Pz                   1.325
      P    28      S                    1.736
      P    28      Px                   1.305
      P    28      Py                   1.319
      P    28      Pz                   1.296
      P    29      S                    1.728
      P    29      Px                   1.317
      P    29      Py                   1.321
      P    29      Pz                   1.313
      P    30      S                    1.727
      P    30      Px                   1.318
      P    30      Py                   1.327
      P    30      Pz                   1.306
      P    31      S                    1.728
      P    31      Px                   1.313
      P    31      Py                   1.331
      P    31      Pz                   1.306
      P    32      S                    1.729
      P    32      Px                   1.312
      P    32      Py                   1.327
      P    32      Pz                   1.311
      P    33      S                    1.726
      P    33      Px                   1.315
      P    33      Py                   1.331
      P    33      Pz                   1.307
      P    34      S                    1.731
      P    34      Px                   1.315
      P    34      Py                   1.321
      P    34      Pz                   1.307
      P    35      S                    1.720
      P    35      Px                   1.331
      P    35      Py                   1.321
      P    35      Pz                   1.307
      P    36      S                    1.729
      P    36      Px                   1.326
      P    36      Py                   1.317
      P    36      Pz                   1.293
      P    37      S                    1.752
      P    37      Px                   1.271
      P    37      Py                   1.313
      P    37      Pz                   1.320
      P    38      S                    1.759
      P    38      Px                   1.252
      P    38      Py                   1.309
      P    38      Pz                   1.298
      P    39      S                    1.738
      P    39      Px                   1.306
      P    39      Py                   1.318
      P    39      Pz                   1.308
      P    40      S                    1.747
      P    40      Px                   1.305
      P    40      Py                   1.304
      P    40      Pz                   1.306
      P    41      S                    1.736
      P    41      Px                   1.313
      P    41      Py                   1.320
      P    41      Pz                   1.304
      P    42      S                    1.739
      P    42      Px                   1.315
      P    42      Py                   1.307
      P    42      Pz                   1.309
      P    43      S                    1.737
      P    43      Px                   1.316
      P    43      Py                   1.313
      P    43      Pz                   1.305
      P    44      S                    1.732
      P    44      Px                   1.316
      P    44      Py                   1.320
      P    44      Pz                   1.306
      P    45      S                    1.736
      P    45      Px                   1.315
      P    45      Py                   1.314
      P    45      Pz                   1.306
      P    46      S                    1.740
      P    46      Px                   1.313
      P    46      Py                   1.309
      P    46      Pz                   1.306
      P    47      S                    1.735
      P    47      Px                   1.319
      P    47      Py                   1.313
      P    47      Pz                   1.303
      P    48      S                    1.738
      P    48      Px                   1.312
      P    48      Py                   1.313
      P    48      Pz                   1.305
     In     1      Dzz                  1.997
     In     1      Dzy                  1.998
     In     1      Dzx                  1.997
     In     1      Dxx-yy               1.998
     In     1      Dxy                  1.998
     In     1      S                    1.414
     In     1      Px                   0.495
     In     1      Py                   0.469
     In     1      Pz                   0.482
     In     1      S                   -0.500
     In     2      Dzz                  1.997
     In     2      Dzy                  1.998
     In     2      Dzx                  1.998
     In     2      Dxx-yy               1.997
     In     2      Dxy                  1.998
     In     2      S                    1.403
     In     2      Px                   0.489
     In     2      Py                   0.476
     In     2      Pz                   0.489
     In     2      S                   -0.510
     In     3      Dzz                  1.998
     In     3      Dzy                  1.998
     In     3      Dzx                  1.998
     In     3      Dxx-yy               1.998
     In     3      Dxy                  1.999
     In     3      S                    1.437
     In     3      Px                   0.457
     In     3      Py                   0.472
     In     3      Pz                   0.466
     In     3      S                   -0.484
     In     4      Dzz                  1.998
     In     4      Dzy                  1.998
     In     4      Dzx                  1.998
     In     4      Dxx-yy               1.998
     In     4      Dxy                  1.999
     In     4      S                    1.429
     In     4      Px                   0.468
     In     4      Py                   0.462
     In     4      Pz                   0.489
     In     4      S                   -0.515
     In     5      Dzz                  1.998
     In     5      Dzy                  1.999
     In     5      Dzx                  1.998
     In     5      Dxx-yy               1.998
     In     5      Dxy                  1.999
     In     5      S                    1.432
     In     5      Px                   0.483
     In     5      Py                   0.466
     In     5      Pz                   0.463
     In     5      S                   -0.501
     In     6      Dzz                  1.998
     In     6      Dzy                  1.999
     In     6      Dzx                  1.998
     In     6      Dxx-yy               1.998
     In     6      Dxy                  1.998
     In     6      S                    1.421
     In     6      Px                   0.483
     In     6      Py                   0.473
     In     6      Pz                   0.472
     In     6      S                   -0.496
     In     7      Dzz                  1.998
     In     7      Dzy                  1.999
     In     7      Dzx                  1.998
     In     7      Dxx-yy               1.997
     In     7      Dxy                  1.998
     In     7      S                    1.419
     In     7      Px                   0.486
     In     7      Py                   0.476
     In     7      Pz                   0.473
     In     7      S                   -0.508
     In     8      Dzz                  1.998
     In     8      Dzy                  1.999
     In     8      Dzx                  1.998
     In     8      Dxx-yy               1.997
     In     8      Dxy                  1.999
     In     8      S                    1.419
     In     8      Px                   0.484
     In     8      Py                   0.476
     In     8      Pz                   0.472
     In     8      S                   -0.507
     In     9      Dzz                  1.998
     In     9      Dzy                  1.998
     In     9      Dzx                  1.998
     In     9      Dxx-yy               1.997
     In     9      Dxy                  1.998
     In     9      S                    1.419
     In     9      Px                   0.484
     In     9      Py                   0.479
     In     9      Pz                   0.475
     In     9      S                   -0.504
     In    10      Dzz                  1.998
     In    10      Dzy                  1.998
     In    10      Dzx                  1.998
     In    10      Dxx-yy               1.997
     In    10      Dxy                  1.998
     In    10      S                    1.421
     In    10      Px                   0.487
     In    10      Py                   0.476
     In    10      Pz                   0.475
     In    10      S                   -0.511
     In    11      Dzz                  1.998
     In    11      Dzy                  1.999
     In    11      Dzx                  1.998
     In    11      Dxx-yy               1.997
     In    11      Dxy                  1.998
     In    11      S                    1.417
     In    11      Px                   0.489
     In    11      Py                   0.483
     In    11      Pz                   0.472
     In    11      S                   -0.504
     In    12      Dzz                  1.998
     In    12      Dzy                  1.999
     In    12      Dzx                  1.998
     In    12      Dxx-yy               1.998
     In    12      Dxy                  1.999
     In    12      S                    1.409
     In    12      Px                   0.486
     In    12      Py                   0.473
     In    12      Pz                   0.476
     In    12      S                   -0.503
     In    13      Dzz                  1.998
     In    13      Dzy                  1.999
     In    13      Dzx                  1.998
     In    13      Dxx-yy               1.998
     In    13      Dxy                  1.998
     In    13      S                    1.421
     In    13      Px                   0.491
     In    13      Py                   0.475
     In    13      Pz                   0.467
     In    13      S                   -0.506
     In    14      Dzz                  1.997
     In    14      Dzy                  1.999
     In    14      Dzx                  1.998
     In    14      Dxx-yy               1.998
     In    14      Dxy                  1.998
     In    14      S                    1.420
     In    14      Px                   0.492
     In    14      Py                   0.475
     In    14      Pz                   0.471
     In    14      S                   -0.513
     In    15      Dzz                  1.998
     In    15      Dzy                  1.998
     In    15      Dzx                  1.998
     In    15      Dxx-yy               1.998
     In    15      Dxy                  1.998
     In    15      S                    1.428
     In    15      Px                   0.469
     In    15      Py                   0.459
     In    15      Pz                   0.493
     In    15      S                   -0.514
     In    16      Dzz                  1.998
     In    16      Dzy                  1.998
     In    16      Dzx                  1.998
     In    16      Dxx-yy               1.998
     In    16      Dxy                  1.998
     In    16      S                    1.425
     In    16      Px                   0.471
     In    16      Py                   0.461
     In    16      Pz                   0.501
     In    16      S                   -0.490
     In    17      Dzz                  1.997
     In    17      Dzy                  1.998
     In    17      Dzx                  1.998
     In    17      Dxx-yy               1.997
     In    17      Dxy                  1.998
     In    17      S                    1.421
     In    17      Px                   0.490
     In    17      Py                   0.477
     In    17      Pz                   0.475
     In    17      S                   -0.516
     In    18      Dzz                  1.997
     In    18      Dzy                  1.998
     In    18      Dzx                  1.998
     In    18      Dxx-yy               1.997
     In    18      Dxy                  1.998
     In    18      S                    1.417
     In    18      Px                   0.491
     In    18      Py                   0.483
     In    18      Pz                   0.476
     In    18      S                   -0.527
     In    19      Dzz                  1.997
     In    19      Dzy                  1.998
     In    19      Dzx                  1.998
     In    19      Dxx-yy               1.997
     In    19      Dxy                  1.998
     In    19      S                    1.422
     In    19      Px                   0.491
     In    19      Py                   0.481
     In    19      Pz                   0.475
     In    19      S                   -0.537
     In    20      Dzz                  1.998
     In    20      Dzy                  1.999
     In    20      Dzx                  1.998
     In    20      Dxx-yy               1.997
     In    20      Dxy                  1.998
     In    20      S                    1.421
     In    20      Px                   0.488
     In    20      Py                   0.477
     In    20      Pz                   0.473
     In    20      S                   -0.518
     In    21      Dzz                  1.997
     In    21      Dzy                  1.998
     In    21      Dzx                  1.998
     In    21      Dxx-yy               1.997
     In    21      Dxy                  1.998
     In    21      S                    1.422
     In    21      Px                   0.487
     In    21      Py                   0.482
     In    21      Pz                   0.476
     In    21      S                   -0.529
     In    22      Dzz                  1.997
     In    22      Dzy                  1.998
     In    22      Dzx                  1.997
     In    22      Dxx-yy               1.997
     In    22      Dxy                  1.998
     In    22      S                    1.425
     In    22      Px                   0.493
     In    22      Py                   0.483
     In    22      Pz                   0.478
     In    22      S                   -0.547
     In    23      Dzz                  1.998
     In    23      Dzy                  1.998
     In    23      Dzx                  1.998
     In    23      Dxx-yy               1.997
     In    23      Dxy                  1.998
     In    23      S                    1.423
     In    23      Px                   0.484
     In    23      Py                   0.483
     In    23      Pz                   0.479
     In    23      S                   -0.526
     In    24      Dzz                  1.997
     In    24      Dzy                  1.998
     In    24      Dzx                  1.998
     In    24      Dxx-yy               1.997
     In    24      Dxy                  1.998
     In    24      S                    1.429
     In    24      Px                   0.485
     In    24      Py                   0.482
     In    24      Pz                   0.479
     In    24      S                   -0.549
     In    25      Dzz                  1.998
     In    25      Dzy                  1.999
     In    25      Dzx                  1.998
     In    25      Dxx-yy               1.998
     In    25      Dxy                  1.998
     In    25      S                    1.432
     In    25      Px                   0.494
     In    25      Py                   0.456
     In    25      Pz                   0.470
     In    25      S                   -0.486
     In    26      Dzz                  1.998
     In    26      Dzy                  1.999
     In    26      Dzx                  1.998
     In    26      Dxx-yy               1.998
     In    26      Dxy                  1.998
     In    26      S                    1.418
     In    26      Px                   0.490
     In    26      Py                   0.472
     In    26      Pz                   0.463
     In    26      S                   -0.495
     In    27      Dzz                  1.997
     In    27      Dzy                  1.997
     In    27      Dzx                  1.998
     In    27      Dxx-yy               1.997
     In    27      Dxy                  1.999
     In    27      S                    1.439
     In    27      Px                   0.564
     In    27      Py                   0.478
     In    27      Pz                   0.482
     In    27      S                   -0.453
     In    28      Dzz                  1.998
     In    28      Dzy                  1.998
     In    28      Dzx                  1.998
     In    28      Dxx-yy               1.998
     In    28      Dxy                  1.999
     In    28      S                    1.442
     In    28      Px                   0.546
     In    28      Py                   0.464
     In    28      Pz                   0.485
     In    28      S                   -0.438
     In    29      Dzz                  1.997
     In    29      Dzy                  1.998
     In    29      Dzx                  1.997
     In    29      Dxx-yy               1.997
     In    29      Dxy                  1.998
     In    29      S                    1.416
     In    29      Px                   0.492
     In    29      Py                   0.491
     In    29      Pz                   0.485
     In    29      S                   -0.537
     In    30      Dzz                  1.997
     In    30      Dzy                  1.998
     In    30      Dzx                  1.998
     In    30      Dxx-yy               1.997
     In    30      Dxy                  1.998
     In    30      S                    1.419
     In    30      Px                   0.482
     In    30      Py                   0.477
     In    30      Pz                   0.489
     In    30      S                   -0.560
     In    31      Dzz                  1.997
     In    31      Dzy                  1.998
     In    31      Dzx                  1.997
     In    31      Dxx-yy               1.997
     In    31      Dxy                  1.998
     In    31      S                    1.429
     In    31      Px                   0.488
     In    31      Py                   0.482
     In    31      Pz                   0.482
     In    31      S                   -0.552
     In    32      Dzz                  1.997
     In    32      Dzy                  1.998
     In    32      Dzx                  1.997
     In    32      Dxx-yy               1.997
     In    32      Dxy                  1.998
     In    32      S                    1.423
     In    32      Px                   0.492
     In    32      Py                   0.486
     In    32      Pz                   0.481
     In    32      S                   -0.556
     In    33      Dzz                  1.997
     In    33      Dzy                  1.998
     In    33      Dzx                  1.997
     In    33      Dxx-yy               1.997
     In    33      Dxy                  1.998
     In    33      S                    1.422
     In    33      Px                   0.490
     In    33      Py                   0.483
     In    33      Pz                   0.481
     In    33      S                   -0.553
     In    34      Dzz                  1.997
     In    34      Dzy                  1.998
     In    34      Dzx                  1.998
     In    34      Dxx-yy               1.997
     In    34      Dxy                  1.998
     In    34      S                    1.427
     In    34      Px                   0.488
     In    34      Py                   0.481
     In    34      Pz                   0.478
     In    34      S                   -0.546
     In    35      Dzz                  1.997
     In    35      Dzy                  1.998
     In    35      Dzx                  1.997
     In    35      Dxx-yy               1.996
     In    35      Dxy                  1.998
     In    35      S                    1.432
     In    35      Px                   0.493
     In    35      Py                   0.482
     In    35      Pz                   0.482
     In    35      S                   -0.567
     In    36      Dzz                  1.997
     In    36      Dzy                  1.998
     In    36      Dzx                  1.997
     In    36      Dxx-yy               1.997
     In    36      Dxy                  1.998
     In    36      S                    1.431
     In    36      Px                   0.489
     In    36      Py                   0.481
     In    36      Pz                   0.479
     In    36      S                   -0.550
     In    37      Dzz                  1.997
     In    37      Dzy                  1.998
     In    37      Dzx                  1.998
     In    37      Dxx-yy               1.997
     In    37      Dxy                  1.998
     In    37      S                    1.422
     In    37      Px                   0.477
     In    37      Py                   0.484
     In    37      Pz                   0.479
     In    37      S                   -0.522
     In    38      Dzz                  1.998
     In    38      Dzy                  1.999
     In    38      Dzx                  1.998
     In    38      Dxx-yy               1.997
     In    38      Dxy                  1.999
     In    38      S                    1.424
     In    38      Px                   0.472
     In    38      Py                   0.488
     In    38      Pz                   0.478
     In    38      S                   -0.509
     In    39      Dzz                  1.998
     In    39      Dzy                  1.998
     In    39      Dzx                  1.998
     In    39      Dxx-yy               1.997
     In    39      Dxy                  1.999
     In    39      S                    1.446
     In    39      Px                   0.482
     In    39      Py                   0.483
     In    39      Pz                   0.476
     In    39      S                   -0.468
     In    40      Dzz                  1.998
     In    40      Dzy                  1.999
     In    40      Dzx                  1.998
     In    40      Dxx-yy               1.997
     In    40      Dxy                  1.999
     In    40      S                    1.449
     In    40      Px                   0.468
     In    40      Py                   0.484
     In    40      Pz                   0.448
     In    40      S                   -0.484
     In    41      Dzz                  1.997
     In    41      Dzy                  1.998
     In    41      Dzx                  1.998
     In    41      Dxx-yy               1.997
     In    41      Dxy                  1.998
     In    41      S                    1.429
     In    41      Px                   0.490
     In    41      Py                   0.475
     In    41      Pz                   0.480
     In    41      S                   -0.537
     In    42      Dzz                  1.998
     In    42      Dzy                  1.999
     In    42      Dzx                  1.998
     In    42      Dxx-yy               1.997
     In    42      Dxy                  1.999
     In    42      S                    1.429
     In    42      Px                   0.481
     In    42      Py                   0.479
     In    42      Pz                   0.470
     In    42      S                   -0.507
     In    43      Dzz                  1.998
     In    43      Dzy                  1.998
     In    43      Dzx                  1.998
     In    43      Dxx-yy               1.997
     In    43      Dxy                  1.998
     In    43      S                    1.426
     In    43      Px                   0.488
     In    43      Py                   0.477
     In    43      Pz                   0.475
     In    43      S                   -0.517
     In    44      Dzz                  1.997
     In    44      Dzy                  1.998
     In    44      Dzx                  1.998
     In    44      Dxx-yy               1.997
     In    44      Dxy                  1.998
     In    44      S                    1.428
     In    44      Px                   0.487
     In    44      Py                   0.481
     In    44      Pz                   0.480
     In    44      S                   -0.538
     In    45      Dzz                  1.997
     In    45      Dzy                  1.998
     In    45      Dzx                  1.998
     In    45      Dxx-yy               1.997
     In    45      Dxy                  1.998
     In    45      S                    1.424
     In    45      Px                   0.488
     In    45      Py                   0.479
     In    45      Pz                   0.476
     In    45      S                   -0.531
     In    46      Dzz                  1.998
     In    46      Dzy                  1.998
     In    46      Dzx                  1.998
     In    46      Dxx-yy               1.997
     In    46      Dxy                  1.998
     In    46      S                    1.420
     In    46      Px                   0.487
     In    46      Py                   0.478
     In    46      Pz                   0.475
     In    46      S                   -0.511
     In    47      Dzz                  1.997
     In    47      Dzy                  1.998
     In    47      Dzx                  1.998
     In    47      Dxx-yy               1.997
     In    47      Dxy                  1.998
     In    47      S                    1.427
     In    47      Px                   0.491
     In    47      Py                   0.479
     In    47      Pz                   0.474
     In    47      S                   -0.527
     In    48      Dzz                  1.998
     In    48      Dzy                  1.999
     In    48      Dzx                  1.998
     In    48      Dxx-yy               1.997
     In    48      Dxy                  1.998
     In    48      S                    1.421
     In    48      Px                   0.490
     In    48      Py                   0.480
     In    48      Pz                   0.472
     In    48      S                   -0.517
  -------------------------------------------
                           Total:     864.000
  -------------------------------------------

     Atomic Populations (Mulliken)
     -----------------------------
Species          Ion     s       p       d       f      Total   Charge (e)
==========================================================================
  P               1     1.741   3.739   0.000   0.000   5.481    -0.481
  P               2     1.754   3.723   0.000   0.000   5.477    -0.477
  P               3     1.746   3.919   0.000   0.000   5.665    -0.665
  P               4     1.741   3.931   0.000   0.000   5.672    -0.672
  P               5     1.745   3.919   0.000   0.000   5.664    -0.664
  P               6     1.740   3.930   0.000   0.000   5.670    -0.670
  P               7     1.741   3.928   0.000   0.000   5.669    -0.669
  P               8     1.741   3.927   0.000   0.000   5.668    -0.668
  P               9     1.742   3.925   0.000   0.000   5.667    -0.667
  P              10     1.741   3.929   0.000   0.000   5.670    -0.670
  P              11     1.742   3.919   0.000   0.000   5.661    -0.661
  P              12     1.748   3.915   0.000   0.000   5.663    -0.663
  P              13     1.742   3.923   0.000   0.000   5.666    -0.666
  P              14     1.748   3.913   0.000   0.000   5.661    -0.661
  P              15     1.739   3.935   0.000   0.000   5.674    -0.674
  P              16     1.738   3.933   0.000   0.000   5.672    -0.672
  P              17     1.737   3.935   0.000   0.000   5.672    -0.672
  P              18     1.734   3.939   0.000   0.000   5.673    -0.673
  P              19     1.733   3.942   0.000   0.000   5.676    -0.676
  P              20     1.738   3.934   0.000   0.000   5.672    -0.672
  P              21     1.734   3.941   0.000   0.000   5.675    -0.675
  P              22     1.728   3.950   0.000   0.000   5.678    -0.678
  P              23     1.738   3.930   0.000   0.000   5.668    -0.668
  P              24     1.731   3.942   0.000   0.000   5.673    -0.673
  P              25     1.755   3.868   0.000   0.000   5.623    -0.623
  P              26     1.742   3.922   0.000   0.000   5.664    -0.664
  P              27     1.728   3.949   0.000   0.000   5.677    -0.677
  P              28     1.736   3.920   0.000   0.000   5.657    -0.657
  P              29     1.728   3.951   0.000   0.000   5.679    -0.679
  P              30     1.727   3.952   0.000   0.000   5.679    -0.679
  P              31     1.728   3.950   0.000   0.000   5.678    -0.678
  P              32     1.729   3.950   0.000   0.000   5.678    -0.678
  P              33     1.726   3.952   0.000   0.000   5.678    -0.678
  P              34     1.731   3.943   0.000   0.000   5.674    -0.674
  P              35     1.720   3.958   0.000   0.000   5.679    -0.679
  P              36     1.729   3.936   0.000   0.000   5.665    -0.665
  P              37     1.752   3.903   0.000   0.000   5.655    -0.655
  P              38     1.759   3.859   0.000   0.000   5.618    -0.618
  P              39     1.738   3.932   0.000   0.000   5.670    -0.670
  P              40     1.747   3.915   0.000   0.000   5.662    -0.662
  P              41     1.736   3.937   0.000   0.000   5.672    -0.672
  P              42     1.739   3.931   0.000   0.000   5.670    -0.670
  P              43     1.737   3.933   0.000   0.000   5.671    -0.671
  P              44     1.732   3.943   0.000   0.000   5.675    -0.675
  P              45     1.736   3.935   0.000   0.000   5.671    -0.671
  P              46     1.740   3.928   0.000   0.000   5.668    -0.668
  P              47     1.735   3.935   0.000   0.000   5.670    -0.670
  P              48     1.738   3.929   0.000   0.000   5.668    -0.668
  In              1     0.914   1.446   9.988   0.000  12.348     0.652
  In              2     0.893   1.454   9.988   0.000  12.334     0.666
  In              3     0.954   1.395   9.991   0.000  12.340     0.660
  In              4     0.914   1.419   9.991   0.000  12.323     0.677
  In              5     0.932   1.411   9.991   0.000  12.334     0.666
  In              6     0.925   1.428   9.990   0.000  12.344     0.656
  In              7     0.911   1.434   9.990   0.000  12.335     0.665
  In              8     0.912   1.432   9.990   0.000  12.334     0.666
  In              9     0.915   1.438   9.990   0.000  12.343     0.657
  In             10     0.910   1.438   9.990   0.000  12.338     0.662
  In             11     0.913   1.443   9.990   0.000  12.346     0.654
  In             12     0.906   1.435   9.990   0.000  12.331     0.669
  In             13     0.915   1.432   9.990   0.000  12.337     0.663
  In             14     0.906   1.438   9.989   0.000  12.334     0.666
  In             15     0.914   1.420   9.990   0.000  12.324     0.676
  In             16     0.935   1.433   9.990   0.000  12.358     0.642
  In             17     0.904   1.441   9.989   0.000  12.335     0.665
  In             18     0.890   1.451   9.989   0.000  12.330     0.670
  In             19     0.884   1.447   9.989   0.000  12.320     0.680
  In             20     0.903   1.438   9.990   0.000  12.331     0.669
  In             21     0.894   1.445   9.989   0.000  12.328     0.672
  In             22     0.878   1.454   9.988   0.000  12.321     0.679
  In             23     0.897   1.446   9.989   0.000  12.332     0.668
  In             24     0.879   1.446   9.989   0.000  12.314     0.686
  In             25     0.947   1.420   9.991   0.000  12.357     0.643
  In             26     0.923   1.425   9.990   0.000  12.338     0.662
  In             27     0.986   1.524   9.988   0.000  12.498     0.502
  In             28     1.004   1.494   9.990   0.000  12.489     0.511
  In             29     0.879   1.468   9.988   0.000  12.335     0.665
  In             30     0.859   1.448   9.988   0.000  12.295     0.705
  In             31     0.877   1.451   9.988   0.000  12.316     0.684
  In             32     0.867   1.458   9.988   0.000  12.313     0.687
  In             33     0.870   1.453   9.988   0.000  12.311     0.689
  In             34     0.881   1.447   9.989   0.000  12.317     0.683
  In             35     0.865   1.456   9.988   0.000  12.308     0.692
  In             36     0.881   1.449   9.988   0.000  12.318     0.682
  In             37     0.900   1.440   9.989   0.000  12.329     0.671
  In             38     0.915   1.438   9.990   0.000  12.343     0.657
  In             39     0.978   1.440   9.990   0.000  12.408     0.592
  In             40     0.965   1.399   9.991   0.000  12.356     0.644
  In             41     0.892   1.446   9.989   0.000  12.327     0.673
  In             42     0.922   1.431   9.990   0.000  12.343     0.657
  In             43     0.909   1.440   9.990   0.000  12.338     0.662
  In             44     0.890   1.448   9.989   0.000  12.326     0.674
  In             45     0.893   1.444   9.989   0.000  12.326     0.674
  In             46     0.909   1.440   9.990   0.000  12.339     0.661
  In             47     0.900   1.443   9.989   0.000  12.332     0.668
  In             48     0.904   1.442   9.989   0.000  12.335     0.665
==========================================================================

                 Bond                   Population      Length (A)
======================================================================
              P 1  -- P 2                    0.46        2.27693
              P 27 -- In 27                  0.62        2.50041
              P 35 -- In 35                  0.57        2.50361
              P 35 -- In 1                   0.58        2.50500
              P 16 -- In 29                  0.54        2.50564
              P 30 -- In 30                  0.58        2.50810
              P 29 -- In 29                  0.59        2.50858
              P 35 -- In 2                   1.38        2.51002
              P 33 -- In 33                  0.57        2.51731
              P 31 -- In 31                  0.56        2.51734
              P 1  -- In 3                   1.23        2.51772
              P 25 -- In 27                  1.35        2.51791
              P 32 -- In 32                  0.58        2.51817
              P 36 -- In 14                  0.55        2.51834
              P 24 -- In 2                   0.59        2.51896
              P 22 -- In 35                  0.57        2.52319
              P 18 -- In 32                  0.57        2.52516
              P 22 -- In 22                  0.57        2.52591
              P 26 -- In 16                  1.33        2.52716
              P 19 -- In 22                  0.56        2.52724
              P 15 -- In 18                  0.53        2.52736
              P 33 -- In 36                  0.58        2.52775
              P 47 -- In 13                  0.56        2.52811
              P 33 -- In 35                  1.38        2.52815
              P 17 -- In 19                  0.56        2.52858
              P 34 -- In 47                  0.57        2.52886
              P 13 -- In 15                  1.34        2.53369
              P 29 -- In 31                  0.55        2.53393
              P 30 -- In 44                  0.57        2.53397
              P 36 -- In 36                  0.55        2.53410
              P 34 -- In 34                  0.56        2.53603
              P 32 -- In 33                  0.57        2.53623
              P 36 -- In 1                   1.38        2.53624
              P 45 -- In 48                  0.56        2.53626
              P 44 -- In 44                  0.57        2.53669
              P 44 -- In 45                  0.56        2.53706
              P 14 -- In 4                   1.30        2.53713
              P 31 -- In 34                  0.57        2.53718
              P 27 -- In 30                  0.53        2.53731
              P 20 -- In 21                  0.56        2.53796
              P 21 -- In 24                  0.56        2.53865
              P 30 -- In 31                  1.35        2.54064
              P 28 -- In 30                  1.40        2.54119
              P 27 -- In 29                  1.36        2.54165
              P 6  -- In 20                  0.55        2.54201
              P 24 -- In 37                  1.34        2.54215
              P 31 -- In 33                  1.37        2.54220
              P 48 -- In 26                  0.57        2.54263
              P 2  -- In 40                  1.12        2.54275
              P 4  -- In 17                  0.51        2.54304
              P 24 -- In 24                  0.55        2.54312
              P 43 -- In 46                  0.56        2.54401
              P 29 -- In 32                  1.37        2.54437
              P 39 -- In 41                  1.34        2.54484
              P 41 -- In 43                  0.56        2.54632
              P 46 -- In 11                  0.55        2.54689
              P 7  -- In 10                  0.55        2.54694
              P 19 -- In 19                  0.58        2.54713
              P 22 -- In 24                  1.37        2.54821
              P 34 -- In 36                  1.35        2.54841
              P 32 -- In 22                  1.36        2.54947
              P 8  -- In 9                   0.55        2.54977
              P 10 -- In 23                  0.54        2.55056
              P 18 -- In 18                  0.58        2.55154
              P 41 -- In 44                  1.35        2.55220
              P 37 -- In 39                  1.21        2.55393
              P 44 -- In 34                  1.35        2.55413
              P 5  -- In 7                   0.55        2.55432
              P 11 -- In 25                  0.55        2.55435
              P 21 -- In 21                  0.57        2.55462
              P 41 -- In 41                  0.55        2.55491
              P 9  -- In 12                  0.56        2.55495
              P 37 -- In 37                  0.55        2.55604
              P 42 -- In 8                   0.55        2.55683
              P 28 -- In 41                  0.56        2.55716
              P 3  -- In 5                   1.30        2.55769
              P 23 -- In 38                  1.32        2.55775
              P 28 -- In 28                  0.54        2.55812
              P 21 -- In 23                  1.34        2.55814
              P 45 -- In 45                  0.56        2.55822
              P 47 -- In 47                  0.57        2.55962
              P 19 -- In 21                  1.33        2.56247
              P 39 -- In 39                  0.55        2.56346
              P 45 -- In 47                  1.34        2.56359
              P 47 -- In 14                  1.33        2.56414
              P 43 -- In 45                  1.34        2.56421
              P 23 -- In 37                  0.56        2.56428
              P 42 -- In 43                  1.33        2.56431
              P 16 -- In 18                  1.36        2.56468
              P 18 -- In 19                  1.34        2.56480
              P 38 -- In 28                  1.28        2.56481
              P 38 -- In 38                  0.57        2.56499
              P 23 -- In 23                  0.56        2.56523
              P 17 -- In 17                  0.57        2.56542
              P 48 -- In 48                  0.57        2.56767
              P 8  -- In 46                  1.32        2.56923
              P 43 -- In 43                  0.55        2.57000
              P 20 -- In 10                  1.33        2.57036
              P 20 -- In 20                  0.57        2.57038
              P 3  -- In 6                   0.51        2.57042
              P 10 -- In 12                  1.34        2.57065
              P 17 -- In 20                  1.33        2.57114
              P 15 -- In 17                  1.37        2.57147
              P 5  -- In 8                   1.32        2.57176
              P 46 -- In 48                  1.33        2.57189
              P 4  -- In 6                   1.35        2.57265
              P 7  -- In 9                   1.32        2.57293
              P 42 -- In 42                  0.55        2.57347
              P 6  -- In 7                   1.33        2.57446
              P 40 -- In 42                  1.29        2.57448
              P 9  -- In 11                  1.32        2.57458
              P 40 -- In 40                  0.54        2.57628
              P 48 -- In 13                  1.31        2.57651
              P 6  -- In 6                   0.56        2.57660
              P 39 -- In 42                  0.55        2.57674
              P 12 -- In 25                  1.31        2.57721
              P 11 -- In 11                  0.56        2.57753
              P 2  -- In 2                   0.57        2.57874
              P 46 -- In 46                  0.55        2.57918
              P 10 -- In 10                  0.55        2.58425
              P 11 -- In 26                  1.29        2.58554
              P 14 -- In 14                  0.53        2.58658
              P 3  -- In 3                   0.53        2.58692
              P 13 -- In 13                  0.53        2.59011
              P 9  -- In 9                   0.55        2.59127
              P 8  -- In 8                   0.56        2.59226
              P 26 -- In 26                  0.54        2.59232
              P 7  -- In 7                   0.56        2.59361
              P 12 -- In 38                  0.53        2.59527
              P 15 -- In 15                  0.54        2.59605
              P 4  -- In 4                   0.54        2.59724
              P 40 -- In 5                   0.52        2.59813
              P 1  -- In 1                   0.50        2.59985
              P 16 -- In 16                  0.55        2.60528
              P 5  -- In 5                   0.55        2.60925
              P 12 -- In 12                  0.53        2.61082
              P 37 -- In 40                  0.54        2.61602
              P 38 -- In 39                  0.45        2.61606
              P 26 -- In 15                  0.54        2.63862
              P 13 -- In 4                   0.54        2.64497
              P 25 -- In 25                  0.48        2.64741
              P 14 -- In 3                   0.53        2.66070
              P 25 -- In 16                  0.47        2.67040
======================================================================

 Hirshfeld supercell size:           1           1           4
Standard grid dimensions: 250 250 180
Fine grid dimensions:     250 250 180


     Hirshfeld Analysis
     ------------------
Species   Ion     Hirshfeld Charge (e)
======================================
  P        1                -0.15
  P        2                -0.15
  P        3                -0.24
  P        4                -0.25
  P        5                -0.24
  P        6                -0.24
  P        7                -0.24
  P        8                -0.24
  P        9                -0.24
  P       10                -0.24
  P       11                -0.24
  P       12                -0.23
  P       13                -0.24
  P       14                -0.24
  P       15                -0.24
  P       16                -0.24
  P       17                -0.24
  P       18                -0.24
  P       19                -0.24
  P       20                -0.24
  P       21                -0.24
  P       22                -0.24
  P       23                -0.24
  P       24                -0.24
  P       25                -0.24
  P       26                -0.24
  P       27                -0.24
  P       28                -0.24
  P       29                -0.24
  P       30                -0.24
  P       31                -0.24
  P       32                -0.24
  P       33                -0.24
  P       34                -0.24
  P       35                -0.25
  P       36                -0.24
  P       37                -0.24
  P       38                -0.23
  P       39                -0.24
  P       40                -0.24
  P       41                -0.24
  P       42                -0.24
  P       43                -0.24
  P       44                -0.24
  P       45                -0.24
  P       46                -0.24
  P       47                -0.24
  P       48                -0.24
  In       1                 0.24
  In       2                 0.23
  In       3                 0.25
  In       4                 0.24
  In       5                 0.25
  In       6                 0.24
  In       7                 0.24
  In       8                 0.24
  In       9                 0.24
  In      10                 0.24
  In      11                 0.23
  In      12                 0.24
  In      13                 0.24
  In      14                 0.24
  In      15                 0.24
  In      16                 0.23
  In      17                 0.24
  In      18                 0.23
  In      19                 0.24
  In      20                 0.24
  In      21                 0.24
  In      22                 0.24
  In      23                 0.24
  In      24                 0.24
  In      25                 0.25
  In      26                 0.25
  In      27                 0.18
  In      28                 0.16
  In      29                 0.23
  In      30                 0.23
  In      31                 0.24
  In      32                 0.23
  In      33                 0.24
  In      34                 0.24
  In      35                 0.24
  In      36                 0.24
  In      37                 0.24
  In      38                 0.24
  In      39                 0.22
  In      40                 0.24
  In      41                 0.23
  In      42                 0.24
  In      43                 0.24
  In      44                 0.24
  In      45                 0.24
  In      46                 0.24
  In      47                 0.24
  In      48                 0.24
======================================

 
 A BibTeX formatted list of references used in this run has been written to 
 90deg_Singlepoints_5.bib
 
Initialisation time =     30.83 s
Calculation time    =   5490.28 s
Finalisation time   =     75.33 s
Total time          =   5596.43 s
Peak Memory Use     = 8535636 kB
 
Overall parallel efficiency rating: Terrible (32%)
 
Data was distributed by:-
G-vector (6-way); efficiency rating: Poor (35%)
k-point (20-way); efficiency rating: Good (79%)
