96
Lattice="14.45404925834546 20.441112492360922 0.0 14.45404925834546 -20.441112492360922 0.0 -2.220446049250313e-16 0.0 4.1725246150929305" Properties=species:S:1:pos:R:3 core_positions="_JSON [[7.227024629172732, 0.0, 2.0862623075464652], [21.68107388751819, 0.0, 2.0862623075464652]]" burgers_vectors="_JSON [[-0.9834734833333334, 1.9669469666666668, -0.9834734833333334], [0.9834734833333334, -1.9669469666666668, 0.9834734833333334]]" dislocation_types="_JSON [\"1/6<112> 30 degree partial\", \"1/6<112> 30 degree partial\"]" dislocation_classes="_JSON [\"<class 'matscipy.dislocation.DiamondGlide30degreePartial'>\", \"<class 'matscipy.dislocation.DiamondGlide30degreePartial'>\"]" energy=-94316.47476204288 pbc="T T T"
In       9.77472277      -2.95697232       3.85527838
P       10.08864293      -0.40784832       3.38863808
In       6.08404240      -2.99711200       2.02264803
P        5.91561196      -0.42361999       2.07472497
In       8.10755050       0.68405700       2.43698108
P        8.34540055       3.14554250       2.15265457
In      11.49698336       0.49070540       1.18301032
P       11.92119465       2.94107380       0.32312136
In       7.10601478       3.95913987       0.06003688
P        7.18444604       6.48405195       0.06367399
In      10.80056430       3.90678690       2.38551842
P       10.80582008       6.44154458       2.23190329
In       9.61196067       7.29476862       0.13182911
P        9.63595193       9.83600038       0.05619070
In       5.97465163       7.31374694       2.14212510
P       20.46957401     -10.59327816       2.09892722
In       8.43183068      10.68013556       2.13534346
P       22.90421931      -7.21698189       2.09206752
In      12.06221756      10.64603238       0.04159675
P       12.07067594      13.19989648       0.00979710
In      21.69812789      -6.37214089       4.17351750
P       21.70967281      -3.82579934       4.15787936
In      10.86498279      14.05268928       2.09457366
P       25.32123057      -3.83574238       2.08367195
In      16.89423005      -2.98750407       4.12491035
P       16.95643075      -0.44207339       4.23729168
In      13.36161544      -3.04432554       1.96055195
P       13.64465824      -0.67360345       1.22530462
In      15.69365108       0.37057231       2.19298565
P       15.60896957       2.93320992       2.25956118
In      19.32395206       0.40582060      -0.01692236
P       19.24821799       2.96623788       0.06277356
In      14.37842641       3.74119021       0.19118047
P       14.41580388       6.32561245       0.09251380
In      18.02104640       3.79936372       2.15771578
P       18.03811610       6.36293806       2.12836768
In      16.82805469       7.20715491       0.04385397
P       16.86636651       9.77370114       0.01677443
In      13.24596178       7.22360684       2.17759836
P       13.25948294       9.78096700       2.12977937
In      15.67006882      10.63695963       2.10304385
P       15.69128922      13.19629145       2.08091634
In      19.27477058      10.64791687      -0.00725491
P       19.31707138      13.21568468      -0.03066436
In      14.48142933      14.04287004      -0.00489409
P       14.48527759      16.59979355      -0.01295201
In      18.10126069      14.04814609       2.05715959
P        3.66522796      -3.82812385       2.04888227
In      24.11443598      -2.98351667       4.16976380
P       24.10284902      -0.43008014       4.17635344
In      20.50185765      -2.97912262       2.06866232
P       20.53057897      -0.42922425       2.07273969
In      22.91210742       0.42957178       2.09081938
P       22.86199962       2.98315059       2.11059163
In      26.49151420       0.42343121       4.17213659
P       26.46959853       2.97642812       0.00690567
In      21.64813476       3.83107787       0.02687305
P       21.65686584       6.38671638       0.01354763
In      25.26460994       3.83169833       2.09388160
P       10.81608417     -14.05694034       2.08053354
In       9.61080375     -13.20293108       4.16622640
P        9.62978193     -10.64878030       4.13841642
In      20.44539106       7.23102158       2.10069890
P       20.47351107       9.79151655       2.07858019
In       8.42849338      -9.79165173       2.05123835
P        8.46482669      -7.22997996       2.01657867
In      12.04737620      -9.82028392       4.10564618
P       12.08336970      -7.27660736       4.03024555
In       7.27865293      -6.35662246       4.10387797
P        7.33259173      -3.77094773       4.09371217
In      10.89149172      -6.41125429       1.93421032
P       10.93140219      -3.86513137       1.79578932
In       2.43961433      -2.99894125       4.14006456
P        2.34960726      -0.44051071      -0.00132956
In      13.27330896      17.44775023       2.07493006
P       27.68236462      -0.43861457       2.08496826
In       1.15617566       0.42407997       2.08586737
P       15.61343871     -17.46597198       2.09057083
In       4.70525462       0.46204194      -0.00391911
P        4.75082705       3.00598121       0.02515792
In      14.41196160     -16.60976299       4.17581468
P       14.43163878     -14.06350558       4.15873359
In       3.54201552       3.85843070       2.10865945
P       18.04488086     -14.04218116       2.09634887
In      16.83359519     -13.20870586       4.17748348
P       16.87355983     -10.67012324       4.13608858
In      13.22512521     -13.21630014       2.06893850
P       13.25072198     -10.67084942       2.02557493
In      15.66617974      -9.83797963       2.04307373
P       15.70548380      -7.30615618       1.97634998
In      19.26100494      -9.76142865       4.17881703
P       19.29171548      -7.22167548       4.14324932
In      14.51105140      -6.46192460       4.05108412
P       14.53332699      -3.94620227       4.03649267
In      18.08434322      -6.38046473       2.05130337
P       18.10573505      -3.83760723       2.04464415
96
Lattice="14.45404925834546 20.441112492360922 0.0 14.45404925834546 -20.441112492360922 0.0 -2.220446049250313e-16 0.0 4.1725246150929305" Properties=species:S:1:pos:R:3 core_positions="_JSON [[7.227024629172732, 0.0, 2.0862623075464652], [21.68107388751819, 0.0, 2.0862623075464652]]" burgers_vectors="_JSON [[-0.9834734833333334, 1.9669469666666668, -0.9834734833333334], [0.9834734833333334, -1.9669469666666668, 0.9834734833333334]]" dislocation_types="_JSON [\"1/6<112> 30 degree partial\", \"1/6<112> 30 degree partial\"]" dislocation_classes="_JSON [\"<class 'matscipy.dislocation.DiamondGlide30degreePartial'>\", \"<class 'matscipy.dislocation.DiamondGlide30degreePartial'>\"]" energy=-94315.4305214355 pbc="T T T"
In       9.87417767      -2.96342865       3.66695385
P       10.21989408      -0.41198284       3.13983449
In       6.15951805      -2.98526805       1.97223947
P        5.95611180      -0.41405796       2.09608591
In       8.12452674       0.71275269       2.48322436
P        8.27884443       3.17590203       2.23877189
In      11.49916415       0.51459303       0.99164546
P       11.82488780       3.01145167       0.44685313
In       7.03741803       3.97472438       0.13786379
P        7.15337584       6.48972852       0.07998798
In      10.71106788       3.95154840       2.50648357
P       10.77631234       6.46979039       2.30101728
In       9.57768333       7.30229750       0.19099782
P        9.64905177       9.82731475       0.03501974
In       5.93800643       7.30892078       2.14950597
P       20.47243499     -10.61053176       2.01872943
In       8.44119891      10.64836291       2.10256770
P       22.96844629      -7.27202301       1.96230507
In      12.05811278      10.68878068       0.09686293
P       12.11369208      13.22895680      -0.00819001
In      21.76775593      -6.44781946       4.03036394
P       21.82797892      -3.93607478       3.93208795
In      10.90330345      14.06621313       2.06719437
P       25.39031178      -3.83093699       2.02943213
In      17.10877315      -2.97589290       3.64623683
P       17.35699379      -0.45026950       3.21139569
In      13.51757800      -2.97632675       1.52728459
P       13.80479693      -0.43824620       1.11054826
In      15.03222814       0.45686622       3.15317356
P       15.40195499       2.97255948       2.62604328
In      18.63788054       0.42720797       1.03728401
P       19.03959789       2.94036057       0.51704878
In      14.25345388       3.88327657       0.52171967
P       14.36152867       6.42723752       0.28894743
In      17.84391864       3.82042741       2.59899824
P       17.96195643       6.37917689       2.36307479
In      16.78959089       7.26364906       0.26547407
P       16.87459320       9.81990267       0.11888671
In      13.19594610       7.30836767       2.35663750
P       13.26062695       9.84669297       2.19753427
In      15.68171270      10.68037259       2.19652332
P       15.73902799      13.23205861       2.10142085
In      19.29942694      10.65834566       0.05946179
P       19.37602836      13.23060098      -0.02221028
In      14.52492645      14.06970017       0.00980068
P       14.54957665      16.61983089      -0.02534356
In      18.15728629      14.06474148       2.06494812
P        3.73969597      -3.81075608       2.03623641
In      24.17948192      -2.98864949       4.10988992
P       24.15960748      -0.44233017       4.24089251
In      20.63590239      -3.09254510       1.83164303
P       20.74794785      -0.62835850       1.70938545
In      22.93295468       0.40574778       2.18073970
P       22.76486190       2.94741844       2.34488518
In      26.52267530       0.41577531       4.18874134
P       26.40679913       2.96907407       0.10883384
In      21.49760453       3.72926826       0.28737525
P       21.58066278       6.31562659       0.15894974
In      25.17584330       3.80886196       2.20649247
P       10.75683761     -14.07328422       2.15033309
In       9.53811912     -13.23269971       4.23847446
P        9.62559032     -10.66159988       4.15543747
In      20.39464277       7.20326869       2.24688289
P       20.48237338       9.77665475       2.14752539
In       8.43785474      -9.78635623       2.06820499
P        8.53235997      -7.20919602       1.97726914
In      12.04452550      -9.81279019       4.06637269
P       12.14349054      -7.25337597       3.91173068
In       7.33984737      -6.34116562       4.06635774
P        7.43225032      -3.74509580       4.03148805
In      10.96172703      -6.38588066       1.81397798
P       11.07499261      -3.82036690       1.59770135
In       2.50225801      -2.98550167       4.13038719
P        2.38710740      -0.43003866       0.02197504
In      13.33193734      17.46151584       2.05970345
P       27.72403791      -0.42944592       2.10152438
In       1.18485945       0.43156899       2.11150365
P       15.56284043     -17.45891439       2.14331311
In       4.73312021       0.47482685       0.01878788
P        4.69887819       3.01544206       0.06843501
In      14.34803373     -16.60788349       4.23077165
P       14.38386478     -14.05990986       4.17975743
In       3.48380478       3.86885660       2.14955273
P       18.00398065     -14.03397262       2.09512649
In      16.78660060     -13.20056731       4.17141997
P       16.85829996     -10.66085025       4.05779879
In      13.16892703     -13.21984565       2.08937511
P       13.24010999     -10.66804321       1.98795190
In      15.65332487      -9.81961152       1.95798612
P       15.73643010      -7.27877582       1.79147892
In      19.26180421      -9.78802578       4.08683353
P       19.34598755      -7.26325373       3.92340438
In      14.56476917      -6.40351101       3.85918665
P       14.68406688      -3.85357823       3.63750066
In      18.14636717      -6.42585612       1.81478024
P       18.23067753      -3.90267817       1.59489989
96
Lattice="14.45404925834546 20.441112492360922 0.0 14.45404925834546 -20.441112492360922 0.0 -2.220446049250313e-16 0.0 4.1725246150929305" Properties=species:S:1:pos:R:3 core_positions="_JSON [[7.227024629172732, 0.0, 2.0862623075464652], [21.68107388751819, 0.0, 2.0862623075464652]]" burgers_vectors="_JSON [[-0.9834734833333334, 1.9669469666666668, -0.9834734833333334], [0.9834734833333334, -1.9669469666666668, 0.9834734833333334]]" dislocation_types="_JSON [\"1/6<112> 30 degree partial\", \"1/6<112> 30 degree partial\"]" dislocation_classes="_JSON [\"<class 'matscipy.dislocation.DiamondGlide30degreePartial'>\", \"<class 'matscipy.dislocation.DiamondGlide30degreePartial'>\"]" energy=-94315.39629418192 pbc="T T T"
In       9.88593321      -2.95707290       3.66514381
P       10.22775676      -0.40450392       3.13758746
In       6.16781105      -2.97655614       1.97850695
P        5.95952751      -0.40556620       2.10806730
In       8.12869950       0.72136455       2.49105800
P        8.27308649       3.18547797       2.24956350
In      11.50720172       0.52194338       0.99067330
P       11.81757804       3.02190985       0.45473373
In       7.03078655       3.98451007       0.14839806
P        7.14790209       6.49993221       0.08422433
In      10.70418792       3.96215959       2.51369261
P       10.77146615       6.48000422       2.30293989
In       9.57225261       7.31344801       0.19183273
P        9.64694544       9.83821090       0.02262367
In       5.93175634       7.31927296       2.15342955
P       20.47018062     -10.59958107       2.01368705
In       8.43860409      10.66251294       2.08806472
P       22.97205839      -7.25908356       1.92105033
In      12.05798621      10.69599340       0.09607239
P       12.11764259      13.23439542      -0.01409073
In      21.77294993      -6.42027879       3.98346068
P       21.82988482      -3.91348502       3.85578599
In      10.90746438      14.07720154       2.06049881
P       25.39522790      -3.82684050       2.02070172
In      17.13209291      -2.95963195       3.64049987
P       17.36785468      -0.42182624       3.29278632
In      13.53393760      -2.96979672       1.51825913
P       13.81551579      -0.43017474       1.10073994
In      15.04245009       0.47020878       3.14168882
P       15.39484995       2.98804417       2.63552906
In      18.63383532       0.43397197       1.16590303
P       19.01466820       2.94986590       0.55470253
In      14.24585689       3.89261020       0.53109144
P       14.35780906       6.43648769       0.29793588
In      17.83659651       3.84067768       2.63136977
P       17.95450001       6.39800402       2.39117561
In      16.78447381       7.27925079       0.29117117
P       16.87541872       9.83378913       0.13124544
In      13.19193283       7.31658260       2.36450448
P       13.26134976       9.85420124       2.19808071
In      15.68190590      10.69216432       2.20722262
P       15.74396721      13.24251260       2.10474751
In      19.30303684      10.66791576       0.07851332
P       19.38281082      13.24070132      -0.01222542
In      14.52810311      14.07862055       0.01187326
P       14.55536379      16.62743136      -0.02551359
In      18.16281973      14.07459956       2.07422810
P        3.74725841      -3.80103887       2.04409798
In      24.18246161      -2.96424160       4.09739190
P       24.14547931      -0.43714202       4.38301855
In      20.67074656      -2.99384251       1.75642344
P       20.87734803      -0.59169280       1.08528720
In      22.78484831       0.33726437       2.39424862
P       22.73276560       2.92163227       2.41754644
In      26.50009835       0.40164092       4.20077038
P       26.39666163       2.96291418       0.14830985
In      21.48003507       3.72679156       0.35367843
P       21.57326292       6.32009188       0.19986260
In      25.14642000       3.78202540       2.24970818
P       10.74606197     -14.08837739       2.17625382
In       9.53312619     -13.23748327       4.26457260
P        9.62900672     -10.66275024       4.17143893
In      20.39118622       7.20854052       2.28478342
P       20.48484782       9.78372119       2.16790513
In       8.44260187      -9.78271614       2.08395899
P        8.54171920      -7.20342857       1.98529231
In      12.04741293      -9.80935322       4.07541790
P       12.15502999      -7.24806284       3.91353765
In       7.34849004      -6.33400478       4.07429661
P        7.44290552      -3.73685631       4.03708819
In      10.97238936      -6.38040327       1.81590068
P       11.08878549      -3.81372861       1.59558540
In       2.50678739      -2.97688542       4.13830701
P        2.38849919      -0.42130260       0.03848021
In      13.33200133      17.46644177       2.05841080
P       27.72707686      -0.42657401       2.11526427
In       1.18240553       0.43965089       2.12914142
P       15.55549012     -17.45138732       2.16430359
In       4.73457221       0.48322263       0.03118275
P        4.69278255       3.02412949       0.08245953
In      14.33307734     -16.60646038       4.25235432
P       14.37702706     -14.05709910       4.19574971
In       3.47656964       3.87743930       2.16406161
P       17.99790223     -14.02525675       2.10416430
In      16.77937186     -13.19299033       4.18053241
P       16.85775600     -10.65236250       4.05915156
In      13.15725771     -13.22372802       2.10561036
P       13.24147150     -10.66780298       1.99699381
In      15.65428961      -9.80892689       1.95924224
P       15.75073546      -7.26539132       1.78599537
In      19.26038084      -9.77374238       4.08127581
P       19.35125344      -7.24885253       3.90930376
In      14.57708021      -6.39246256       3.85403251
P       14.70314712      -3.84224681       3.62799431
In      18.16115182      -6.39597688       1.80082942
P       18.26402839      -3.87104663       1.58541271
96
Lattice="14.45404925834546 20.441112492360922 0.0 14.45404925834546 -20.441112492360922 0.0 -2.220446049250313e-16 0.0 4.1725246150929305" Properties=species:S:1:pos:R:3 core_positions="_JSON [[7.227024629172732, 0.0, 2.0862623075464652], [21.68107388751819, 0.0, 2.0862623075464652]]" burgers_vectors="_JSON [[-0.9834734833333334, 1.9669469666666668, -0.9834734833333334], [0.9834734833333334, -1.9669469666666668, 0.9834734833333334]]" dislocation_types="_JSON [\"1/6<112> 30 degree partial\", \"1/6<112> 30 degree partial\"]" dislocation_classes="_JSON [\"<class 'matscipy.dislocation.DiamondGlide30degreePartial'>\", \"<class 'matscipy.dislocation.DiamondGlide30degreePartial'>\"]" energy=-94315.34312694315 pbc="T T T"
In       9.89794128      -2.95835552       3.65531371
P       10.23747462      -0.40564729       3.12765017
In       6.17863276      -2.97369867       1.97432717
P        5.96559415      -0.40370063       2.10818687
In       8.13512032       0.72182968       2.49197442
P        8.26631035       3.18701912       2.25637529
In      11.51454865       0.51969700       0.98272653
P       11.81006489       3.02222823       0.45972788
In       7.02221777       3.98513732       0.15475568
P        7.14065936       6.50089679       0.08388368
In      10.69649409       3.96275337       2.51806770
P       10.76557757       6.48003645       2.30060128
In       9.56516863       7.31483987       0.18832798
P        9.64369518       9.83976666       0.00570894
In       5.92360967       7.32072675       2.15265710
P       20.46818323     -10.59701261       2.00384113
In       8.43607387      10.67009821       2.06923583
P       22.97588401      -7.25013908       1.88120433
In      12.06042151      10.68251666       0.08377598
P       12.12948813      13.21817296      -0.03890041
In      21.77944930      -6.40029922       3.94083231
P       21.85227867      -3.88940481       3.74654934
In      10.92152279      14.06018333       2.03461217
P       25.41714482      -3.84838500       1.97259643
In      17.14531505      -2.96030788       3.60485120
P       17.37841331      -0.42041579       3.27028634
In      13.54715567      -2.97297224       1.49818321
P       13.82570844      -0.43217594       1.08382649
In      15.04863318       0.46998880       3.12597622
P       15.38708061       2.98981331       2.64484726
In      18.63377184       0.43728707       1.14897123
P       18.99528852       2.96144091       0.58354697
In      14.23743213       3.88970792       0.53967833
P       14.35554447       6.43172306       0.30116141
In      17.82339550       3.85307369       2.65774818
P       17.94843281       6.40742878       2.40978214
In      16.77851413       7.28616635       0.30765924
P       16.87632781       9.83865635       0.13441354
In      13.18853530       7.30865912       2.36641555
P       13.26482037       9.84416835       2.18749526
In      15.68183313      10.69366191       2.20838092
P       15.75177613      13.24227991       2.09427054
In      19.30319509      10.67735017       0.09324662
P       19.38932893      13.24821829      -0.01191306
In      14.53555132      14.07613377      -0.00025967
P       14.56859673      16.62366113      -0.04521320
In      18.16878001      14.08000300       2.07310980
P        3.75833767      -3.79720971       2.03676323
In      24.21911853      -2.96211239       4.04518865
P       24.14327665      -0.46676951       4.50346520
In      20.69450729      -2.96090640       1.63150828
P       20.91331919      -0.52253605       1.01835495
In      22.64003082       0.30401659       2.63276026
P       22.69571439       2.90413747       2.50369941
In      26.48230047       0.37894189       4.19717428
P       26.37913899       2.94270334       0.18969243
In      21.46198971       3.74137775       0.43282725
P       21.56440207       6.33138580       0.24436356
In      25.11882951       3.75139641       2.29728857
P       10.73309692     -14.11059974       2.20247870
In       9.53027158     -13.24362180       4.29110181
P        9.63145460     -10.66727967       4.18425736
In      20.38431025       7.22159336       2.32579702
P       20.48499691       9.79442873       2.18477976
In       8.44707868      -9.78240292       2.09621230
P        8.55038279      -7.20248902       1.98627342
In      12.05040273      -9.81388315       4.08029359
P       12.16453116      -7.25147171       3.90940719
In       7.35714490      -6.33177843       4.07475743
P        7.45454033      -3.73460862       4.03278635
In      10.98221262      -6.38231409       1.81170341
P       11.10183238      -3.81542147       1.58531808
In       2.51651293      -2.97576023       4.13010807
P        2.39237682      -0.42116689       0.03959620
In      13.34552162      17.46160105       2.03733890
P       27.72814095      -0.43343042       2.11267655
In       1.18100019       0.43519894       2.13135098
P       15.54335606     -17.45593517       2.18163095
In       4.73806215       0.48434447       0.03152312
P        4.68429429       3.02498849       0.09065398
In      14.31367005     -16.61727446       4.27156430
P       14.36648605     -14.06604661       4.20897392
In       3.46426496       3.87602790       2.17295906
P       17.98938103     -14.02594963       2.10870949
In      16.76868790     -13.19556437       4.18528771
P       16.85735101     -10.65296633       4.05647492
In      13.14391624     -13.23619454       2.11947568
P       13.24170433     -10.67660405       2.00196155
In      15.65407315      -9.80958513       1.95659535
P       15.76316805      -7.26328891       1.77399323
In      19.25982613      -9.76891672       4.07109614
P       19.36026751      -7.24157153       3.88450908
In      14.58650358      -6.39480156       3.84237440
P       14.71814151      -3.84412882       3.60668217
In      18.17348968      -6.38637936       1.77557956
P       18.28766008      -3.85679319       1.54680087
96
Lattice="14.45404925834546 20.441112492360922 0.0 14.45404925834546 -20.441112492360922 0.0 -2.220446049250313e-16 0.0 4.1725246150929305" Properties=species:S:1:pos:R:3 core_positions="_JSON [[7.227024629172732, 0.0, 2.0862623075464652], [21.68107388751819, 0.0, 2.0862623075464652]]" burgers_vectors="_JSON [[-0.9834734833333334, 1.9669469666666668, -0.9834734833333334], [0.9834734833333334, -1.9669469666666668, 0.9834734833333334]]" dislocation_types="_JSON [\"1/6<112> 30 degree partial\", \"1/6<112> 30 degree partial\"]" dislocation_classes="_JSON [\"<class 'matscipy.dislocation.DiamondGlide30degreePartial'>\", \"<class 'matscipy.dislocation.DiamondGlide30degreePartial'>\"]" energy=-94315.27711316192 pbc="T T T"
In       9.90275198      -2.95911437       3.65293884
P       10.24443155      -0.40690502       3.12552606
In       6.18314119      -2.97253097       1.97178723
P        5.97323435      -0.40297768       2.10438096
In       8.14161996       0.72146342       2.49204130
P        8.26467378       3.18681391       2.25907851
In      11.51976866       0.51776942       0.98147506
P       11.80723163       3.02057491       0.46235835
In       7.01951643       3.98403202       0.15722954
P        7.13819685       6.49963100       0.08451264
In      10.69390979       3.96120780       2.52044042
P       10.76374126       6.47756486       2.30031469
In       9.56273002       7.31249541       0.18767650
P        9.64220819       9.83684853       0.00068627
In       5.92044157       7.31912417       2.15317980
P       20.46662302     -10.59819300       2.00238680
In       8.43461407      10.66943172       2.06369051
P       22.97636829      -7.25030153       1.86770380
In      12.06358700      10.66703109       0.07537917
P       12.13853183      13.19810057      -0.06111142
In      21.77953715      -6.39721905       3.92663556
P       21.86694548      -3.88282747       3.69805407
In      10.93239815      14.03709040       2.01117978
P       25.43561292      -3.87964751       1.91346638
In      17.15143192      -2.96221266       3.59357179
P       17.38788009      -0.42230359       3.25009726
In      13.55298934      -2.97443072       1.49310384
P       13.83273896      -0.43385188       1.07892875
In      15.05403215       0.46843456       3.12176389
P       15.38304781       2.98857589       2.64941664
In      18.63158688       0.44511442       1.12678787
P       18.98378833       2.97301338       0.59603501
In      14.23355214       3.88563143       0.54376492
P       14.35583345       6.42576734       0.30145479
In      17.81355134       3.86224529       2.66856085
P       17.94486141       6.41439181       2.41668964
In      16.77474183       7.29074776       0.31355647
P       16.87601379       9.84159780       0.13446646
In      13.18819346       7.29959727       2.36614738
P       13.26849891       9.83235334       2.17991664
In      15.68086142      10.69439534       2.20749838
P       15.75476097      13.24141398       2.08654797
In      19.30058907      10.68657720       0.09951594
P       19.39070312      13.25483373      -0.01314815
In      14.53804062      14.07509762      -0.00895453
P       14.57515919      16.62137501      -0.06133742
In      18.16953425      14.08414901       2.07095115
P        3.76350651      -3.79487920       2.02918501
In      24.25130629      -2.97620792       3.97779303
P       24.17115308      -0.51210425       4.50650163
In      20.71680798      -2.95329058       1.57540217
P       20.93850938      -0.47604754       1.02881415
In      22.47844140       0.31486300       2.85316015
P       22.66456627       2.90875440       2.56478892
In      26.48398470       0.36952721       4.16877115
P       26.36979634       2.93302055       0.21498523
In      21.44655496       3.76992501       0.48771027
P       21.55775148       6.35202156       0.26818108
In      25.10187757       3.73259819       2.32804971
P       10.72541771     -14.12213785       2.21523191
In       9.53043904     -13.24317116       4.30392861
P        9.63226209     -10.66647470       4.18990356
In      20.37725078       7.23858038       2.34709446
P       20.48309089       9.80754886       2.19234590
In       8.44889174      -9.77965397       2.10149633
P        8.55326421      -7.20021138       1.98668594
In      12.05168617      -9.81443305       4.08259147
P       12.16808998      -7.25167257       3.90887144
In       7.35982189      -6.32967789       4.07482788
P        7.45937025      -3.73319301       4.03052425
In      10.98560875      -6.38232734       1.81112230
P       11.10779714      -3.81556017       1.58285201
In       2.52038100      -2.97558423       4.12147817
P        2.40143964      -0.42123169       0.02824803
In      13.35066297      17.45951035       2.02045104
P       27.73887248      -0.43570091       2.08806187
In       1.18806260       0.43136112       2.11929068
P       15.53851735     -17.45914255       2.18831116
In       4.74493296       0.48469729       0.02761202
P        4.68185060       3.02509147       0.09327016
In      14.30463072     -16.62267087       4.27989853
P       14.36128238     -14.06993909       4.21406473
In       3.45888624       3.87448679       2.17596856
P       17.98583229     -14.02696420       2.11072162
In      16.76373897     -13.19764124       4.18746201
P       16.85569669     -10.65390994       4.05663089
In      13.13697238     -13.24192160       2.12498571
P       13.24104449     -10.67992868       2.00433836
In      15.65342655      -9.80943853       1.95672279
P       15.76901636      -7.26088717       1.77150366
In      19.25840720      -9.77046424       4.06972519
P       19.36136379      -7.24149746       3.87729395
In      14.59001047      -6.39620104       3.84011854
P       14.72532316      -3.84510704       3.60105224
In      18.17990807      -6.38096649       1.76810598
P       18.30421422      -3.84639497       1.53415963
96