96
Lattice="14.45404925834546 20.441112492360922 0.0 14.45404925834546 -20.441112492360922 0.0 -2.220446049250313e-16 0.0 4.1725246150929305" Properties=species:S:1:pos:R:3 core_positions="_JSON [[7.227024629172732, 0.0, 2.0862623075464652], [21.68107388751819, 0.0, 2.0862623075464652]]" burgers_vectors="_JSON [[-0.9834734833333334, -0.9834734833333334, 1.9669469666666668], [0.9834734833333334, 0.9834734833333334, -1.9669469666666668]]" dislocation_types="_JSON [\"1/6<112> 90 degree partial\", \"1/6<112> 90 degree partial\"]" dislocation_classes="_JSON [\"<class 'matscipy.dislocation.DiamondGlide90degreePartial'>\", \"<class 'matscipy.dislocation.DiamondGlide90degreePartial'>\"]" energy=-94314.16956884078 pbc="T T T"
In       9.22161011      -3.09593925       0.00000000
P        8.58529035      -0.65353660      -0.00000000
In       5.78905105      -3.04862632       2.08626231
P        6.16008744      -0.55394882       2.08626231
In       9.57489344       0.31917316       2.08626231
P        8.91250966       2.85269510       2.08626231
In      13.19534736       0.41990947      -0.00000000
P       12.53094582       2.93508287       0.00000000
In       7.59779330       3.62129233       0.00000000
P        7.40566721       6.24892966       0.00000000
In      11.28308065       3.79091377       2.08626231
P       11.02402482       6.35774685       2.08626231
In       9.77230891       7.19909605       0.00000000
P        9.61288197       9.79170350       0.00000000
In       6.19817905       7.15976501       2.08626231
P       20.49140095     -10.68384239       2.08626231
In       8.40506486      10.69544627       2.08626231
P       22.70687468      -7.14466557       2.08626231
In      12.00682190      10.65864243       0.00000000
P       11.88567840      13.22608146       0.00000000
In      21.49088397      -6.22736906      -0.00000000
P       21.35360778      -3.60279376      -0.00000001
In      10.67917162      14.10142247       2.08626231
P       25.06055933      -3.77199628       2.08626232
In      16.33390699      -2.95928487       0.00000000
P       15.68148113      -0.45083975      -0.00000002
In      12.73004832      -3.00170497       2.08626231
P       12.12773077      -0.49318730       2.08626231
In      16.73958365       0.49439752       2.08626229
P       16.10220532       2.99526338       2.08626231
In      20.31533414       0.63280542      -0.00000017
P       19.61755033       3.09625695      -0.00000001
In      14.88800299       3.85844186      -0.00000000
P       14.63195880       6.40202504       0.00000000
In      18.44461965       3.94288688       2.08626230
P       18.23314940       6.47180933       2.08626231
In      17.00185100       7.28227137       0.00000000
P       16.82920680       9.81425404       0.00000000
In      13.39905326       7.24776064       2.08626231
P       13.22850998       9.80270838       2.08626231
In      15.61740001      10.66650526       2.08626231
P       15.49696017      13.20643359       2.08626231
In      19.22282664      10.64479684       0.00000000
P       19.07649534      13.16069966       0.00000000
In      14.29861137      14.06745196       0.00000000
P       14.25437660      16.61929310       0.00000000
In      17.90349623      14.04626132       2.08626231
P        3.37299079      -3.86562322       2.08626231
In      23.86030741      -2.87252874       0.00000001
P       24.13830298      -0.32663977       0.00000015
In      19.98377944      -2.84052103       2.08626230
P       19.20692884      -0.36286859       2.08626216
In      22.91523435       0.61059100       2.08626250
P       23.13500251       3.14670260       2.08626230
In      26.58697503       0.45641954       0.00000002
P       12.28255449     -17.43280295       0.00000000
In      21.96174271       4.02087716      -0.00000001
P       21.84207500       6.53229227       0.00000000
In      25.55931109       3.87414142       2.08626231
P       11.01240431     -14.02447209       2.08626231
In       9.81169517     -13.17550708       0.00000000
P        9.65751635     -10.65536346       0.00000000
In      20.61437366       7.32416388       2.08626231
P       20.45694388       9.84047659       2.08626231
In       8.42699824      -9.84623747       2.08626231
P        8.25143329      -7.33853028       2.08626231
In      12.05676346      -9.82598114       0.00000000
P       11.86060379      -7.30215214       0.00000000
In       7.03656484      -6.51532450       0.00000000
P        6.87651244      -4.02564021       0.00000000
In      10.62868360      -6.47806492       2.08626231
P       10.41295413      -3.96627103       2.08626231
In      16.68172724      17.46042803       0.00000000
P        2.44357953      -0.44188575       0.00000000
In      13.05992348      17.47393821       2.08626231
P       27.74757503      -0.41868779       2.08626233
In       1.28290433       0.40800110       2.08626231
P       15.90340984     -17.47543885       2.08626231
In       4.95126116       0.27468668       0.00000000
P        5.11594942       2.87293777       0.00000000
In      14.71124159     -16.61525486       0.00000000
P       14.62388734     -14.05858600       0.00000000
In       3.91155881       3.75554356       2.08626231
P       18.23545214     -14.10806826       2.08626231
In      17.03984448     -13.22319977       0.00000000
P       16.89391267     -10.65322810       0.00000000
In      13.42270564     -13.20847963       2.08626231
P       13.27497790     -10.66665939       2.08626231
In      15.66857921      -9.80595952       2.08626231
P       15.47018662      -7.25173034       2.08626231
In      19.29231401      -9.77918424       0.00000000
P       19.11712797      -7.18933775       0.00000000
In      14.22836667      -6.40499443       0.00000000
P       13.97523126      -3.86469278       0.00000000
In      17.85175945      -6.36687279       2.08626231
P       17.61850765      -3.80689890       2.08626231
96
Lattice="14.45404925834546 20.441112492360922 0.0 14.45404925834546 -20.441112492360922 0.0 -2.220446049250313e-16 0.0 4.1725246150929305" Properties=species:S:1:pos:R:3 core_positions="_JSON [[7.227024629172732, 0.0, 2.0862623075464652], [21.68107388751819, 0.0, 2.0862623075464652]]" burgers_vectors="_JSON [[-0.9834734833333334, -0.9834734833333334, 1.9669469666666668], [0.9834734833333334, 0.9834734833333334, -1.9669469666666668]]" dislocation_types="_JSON [\"1/6<112> 90 degree partial\", \"1/6<112> 90 degree partial\"]" dislocation_classes="_JSON [\"<class 'matscipy.dislocation.DiamondGlide90degreePartial'>\", \"<class 'matscipy.dislocation.DiamondGlide90degreePartial'>\"]" energy=-94314.14524827122 pbc="T T T"
In       9.21179182      -3.06451847       0.00801539
P        8.59090559      -0.62187975       0.02919780
In       5.76539769      -3.02804210       2.07687827
P        6.14394599      -0.53818668       2.05665071
In       9.62943750       0.30875530       2.11017782
P        8.96282857       2.84230735       2.09121830
In      13.27267744       0.41507472       0.00741455
P       12.59813125       2.92563265       0.00321505
In       7.63727964       3.59417033       0.00313018
P        7.43826973       6.22096385       0.00171658
In      11.34175381       3.76990071       2.08926883
P       11.06926335       6.33352828       2.08730950
In       9.81015293       7.16264646       0.00097284
P        9.63859905       9.75351102       0.00061321
In       6.22635237       7.12669187       2.08752523
P       20.50919322     -10.71854490       2.08697980
In       8.42745726      10.64798928       2.08689709
P       22.71425439      -7.19407060       2.08739136
In      12.02414259      10.64273739      -0.00005413
P       11.88149539      13.21317160      -0.00096266
In      21.49357601      -6.29260278       0.00148463
P       21.34161859      -3.66563550       0.00336996
In      10.67288776      14.08778558       2.08505948
P       25.03311392      -3.77951129       2.08230269
In      16.35140675      -2.97003529       0.00129337
P       15.76034656      -0.45170869       0.01072479
In      12.73952140      -2.99361450       2.08920718
P       12.18605100      -0.48223114       2.09435966
In      16.84068618       0.47420787       2.09759950
P       16.17142714       2.97411932       2.08874973
In      20.40254238       0.64303183       0.07116341
P       19.67481847       3.10013659       0.00257205
In      14.95920012       3.84288960       0.00188804
P       14.67866129       6.38720240       0.00073076
In      18.50227236       3.94534828       2.08771745
P       18.27346120       6.47489682       2.08708361
In      17.04058686       7.28415188       0.00041649
P       16.84461521       9.81724028      -0.00002963
In      13.44180747       7.23149476       2.08683876
P       13.24860081       9.78797343       2.08628782
In      15.62982710      10.66809759       2.08618869
P       15.48865520      13.20985189       2.08537380
In      19.22397137      10.68180907      -0.00062395
P       19.06685595      13.19473720      -0.00118813
In      14.28748679      14.07109566      -0.00098998
P       14.22408270      16.62572087      -0.00195530
In      17.88713090      14.07020411       2.08504953
P        3.34684721      -3.84394571       2.08358947
In      23.82188046      -2.89316448      -0.00415598
P       24.10591136      -0.32752565      -0.05799057
In      19.99472571      -2.88137470       2.09095214
P       19.30594784      -0.37878512       2.14557255
In      22.95998750       0.69934981       2.00943747
P       23.17991588       3.23016189       2.08877500
In      26.54601488       0.47149372      -0.01124319
P       12.29298213     -17.41278181      -0.00207548
In      21.99141417       4.08517753       0.00339242
P       21.86595372       6.59325437      -0.00124865
In      25.60832784       3.94396113       2.08439592
P       11.04095015     -13.96043879       2.08511642
In       9.83587770     -13.11748842      -0.00096275
P        9.66636493     -10.60070563      -0.00122139
In      20.63444594       7.37539059       2.08530854
P       20.46272991       9.88799484       2.08561000
In       8.43201080      -9.79778836       2.08493945
P        8.24714293      -7.29370371       2.08352476
In      12.06944512      -9.78550022       0.00008264
P       11.86113041      -7.26469409       0.00148124
In       7.02699186      -6.47991970      -0.00309045
P        6.86348330      -3.99389085      -0.00831511
In      10.62710145      -6.44050725       2.08794339
P       10.40997837      -3.93114549       2.09328510
In      16.64954371      17.47543604      -0.00276871
P        2.40818343      -0.42839082      -0.00770542
In      13.02676893      17.48168725       2.08435089
P       27.70453319      -0.40650652       2.07592331
In       1.24221494       0.41625681       2.07937886
P       15.91313177     -17.46933673       2.08382829
In       4.92601254       0.27579163      -0.02312838
P        5.13926716       2.86935916      -0.00452376
In      14.72465236     -16.60647050      -0.00205511
P       14.63790152     -14.04666666      -0.00084050
In       3.93078198       3.74433598       2.08240816
P       18.25558122     -14.12023699       2.08500973
In      17.06006671     -13.23541770      -0.00106109
P       16.90192129     -10.66579122       0.00003070
In      13.45615297     -13.16736817       2.08561176
P       13.28781704     -10.62950248       2.08627353
In      15.68875616      -9.79824594       2.08637887
P       15.47428402      -7.24722541       2.08710303
In      19.30620020      -9.81773332       0.00064311
P       19.11541820      -7.22882085       0.00070523
In      14.23698036      -6.39190150       0.00092716
P       13.98525224      -3.85418624       0.00261115
In      17.86196973      -6.38789616       2.08693521
P       17.62623927      -3.82747565       2.08722168
96
Lattice="14.45404925834546 20.441112492360922 0.0 14.45404925834546 -20.441112492360922 0.0 -2.220446049250313e-16 0.0 4.1725246150929305" Properties=species:S:1:pos:R:3 core_positions="_JSON [[7.227024629172732, 0.0, 2.0862623075464652], [21.68107388751819, 0.0, 2.0862623075464652]]" burgers_vectors="_JSON [[-0.9834734833333334, -0.9834734833333334, 1.9669469666666668], [0.9834734833333334, 0.9834734833333334, -1.9669469666666668]]" dislocation_types="_JSON [\"1/6<112> 90 degree partial\", \"1/6<112> 90 degree partial\"]" dislocation_classes="_JSON [\"<class 'matscipy.dislocation.DiamondGlide90degreePartial'>\", \"<class 'matscipy.dislocation.DiamondGlide90degreePartial'>\"]" energy=-94314.08693459486 pbc="T T T"
In       9.20960253      -3.06133836       0.00722108
P        8.59246537      -0.61846105       0.02590150
In       5.76123373      -3.02627752       2.07790079
P        6.13511213      -0.53627245       2.05996355
In       9.63646134       0.30672356       2.10752007
P        8.96779828       2.84079450       2.09072670
In      13.28655625       0.41454464       0.00524977
P       12.60750553       2.92419706       0.00263867
In       7.64030942       3.59061501       0.00284862
P        7.44008550       6.21760865       0.00157224
In      11.34839004       3.76676338       2.08883235
P       11.07326419       6.33018370       2.08714093
In       9.81316558       7.15780540       0.00083971
P        9.64123290       9.74783290       0.00045282
In       6.22754066       7.12235852       2.08743392
P       20.50927566     -10.72375176       2.08693184
In       8.42940978      10.63831861       2.08670083
P       22.71426878      -7.20594155       2.08658140
In      12.02507586      10.64231866       0.00016166
P       11.87895318      13.21368062       0.00003879
In      21.48800913      -6.31885277       0.00033095
P       21.32673157      -3.69445769       0.00034824
In      10.66938066      14.08635581       2.08633578
P       25.02268184      -3.77849297       2.08630405
In      16.34953797      -2.97276341       0.00170992
P       15.77975304      -0.45188945       0.00204523
In      12.73825335      -2.99284276       2.08904575
P       12.19718282      -0.48063252       2.09233501
In      16.86732907       0.46671993       2.08801510
P       16.18289458       2.96616460       2.08739171
In      20.43020284       0.63538596      -0.00345442
P       19.68472027       3.08856151       0.00021563
In      14.97015310       3.83857278       0.00112421
P       14.68332898       6.38335718       0.00033953
In      18.51253792       3.93700436       2.08657105
P       18.27912619       6.46657284       2.08622303
In      17.04532160       7.27842937      -0.00000930
P       16.84624094       9.81244808      -0.00016590
In      13.44556899       7.22939626       2.08657530
P       13.24959922       9.78665784       2.08641411
In      15.63127830      10.66520572       2.08610805
P       15.48698300      13.20801374       2.08579140
In      19.22138682      10.68681241      -0.00048673
P       19.06443677      13.19868893      -0.00100581
In      14.28575175      14.07040024      -0.00044836
P       14.21665432      16.62616900      -0.00110361
In      17.88422503      14.07207853       2.08524530
P        3.34183580      -3.84253150       2.08408158
In      23.79638348      -2.91505072       0.00012997
P       24.06852876      -0.33275182       0.00278599
In      19.99013949      -2.90358200       2.08666145
P       19.33889072      -0.39102178       2.08355743
In      22.99509212       0.75513141       2.09014227
P       23.19284287       3.27714420       2.08588456
In      26.51379398       0.46722924      -0.00162532
P       12.28973372     -17.41374792      -0.00108221
In      21.98499879       4.10553507      -0.00035987
P       21.86565809       6.61005719      -0.00027187
In      25.62999140       3.97047164       2.08530689
P       11.04686103     -13.93984165       2.08546299
In       9.83728584     -13.10520709      -0.00077004
P        9.66499284     -10.59051037      -0.00103536
In      20.63166430       7.38591971       2.08599913
P       20.46031068       9.89617746       2.08577975
In       8.42961794      -9.79085029       2.08514282
P        8.24481235      -7.28798247       2.08376498
In      12.06919413      -9.77965106       0.00009978
P       11.85884815      -7.26004328       0.00137094
In       7.02459804      -6.47578334      -0.00281862
P        6.86069347      -3.99041922      -0.00742289
In      10.62507150      -6.43649642       2.08781084
P       10.40795394      -3.92772871       2.09263421
In      16.64376395      17.47569878      -0.00219884
P        2.39225672      -0.42778229      -0.00593829
In      13.01879488      17.48266615       2.08519427
P       27.67838298      -0.40368280       2.08430381
In       1.22291693       0.41448960       2.08128250
P       15.91117245     -17.47145937       2.08405991
In       4.91566606       0.27468947      -0.02062885
P        5.13942680       2.86804896      -0.00410940
In      14.72459290     -16.60880972      -0.00195347
P       14.63686410     -14.04766580      -0.00087005
In       3.93105290       3.74194573       2.08274378
P       18.25564164     -14.12269680       2.08509573
In      17.06000020     -13.23920470      -0.00099860
P       16.89861062     -10.67007870       0.00001259
In      13.46435853     -13.15650059       2.08551441
P       13.28863312     -10.62147669       2.08627369
In      15.69011800      -9.79618967       2.08634337
P       15.47049795      -7.24699381       2.08709674
In      19.30339070      -9.82746692       0.00059345
P       19.10743115      -7.24013556       0.00075138
In      14.23484428      -6.38999225       0.00091771
P       13.98299476      -3.85298438       0.00256676
In      17.85830377      -6.39375297       2.08706150
P       17.61924798      -3.83428587       2.08779483
96
Lattice="14.45404925834546 20.441112492360922 0.0 14.45404925834546 -20.441112492360922 0.0 -2.220446049250313e-16 0.0 4.1725246150929305" Properties=species:S:1:pos:R:3 core_positions="_JSON [[7.227024629172732, 0.0, 2.0862623075464652], [21.68107388751819, 0.0, 2.0862623075464652]]" burgers_vectors="_JSON [[-0.9834734833333334, -0.9834734833333334, 1.9669469666666668], [0.9834734833333334, 0.9834734833333334, -1.9669469666666668]]" dislocation_types="_JSON [\"1/6<112> 90 degree partial\", \"1/6<112> 90 degree partial\"]" dislocation_classes="_JSON [\"<class 'matscipy.dislocation.DiamondGlide90degreePartial'>\", \"<class 'matscipy.dislocation.DiamondGlide90degreePartial'>\"]" energy=-94313.98587622456 pbc="T T T"
In       9.20855325      -3.05972068       0.00680408
P        8.59566015      -0.61648893       0.02432618
In       5.75922104      -3.02570853       2.07836205
P        6.12673334      -0.53523436       2.06156323
In       9.64190612       0.30530495       2.10635075
P        8.97125730       2.83986837       2.09053176
In      13.29757195       0.41463365       0.00523145
P       12.61533266       2.92364354       0.00261171
In       7.64291012       3.58899235       0.00274227
P        7.44113861       6.21603358       0.00152754
In      11.35296194       3.76495661       2.08879174
P       11.07594410       6.32839094       2.08714439
In       9.81516664       7.15529574       0.00083935
P        9.64321317       9.74462362       0.00046534
In       6.22857271       7.12047715       2.08740874
P       20.50936790     -10.72652693       2.08692572
In       8.43118308      10.63144573       2.08671719
P       22.71458388      -7.21502124       2.08665307
In      12.02549755      10.64349139       0.00014545
P       11.87654313      13.21672986      -0.00003511
In      21.48165445      -6.34638570       0.00042785
P       21.30763139      -3.72830157       0.00062465
In      10.66602326      14.08656222       2.08624184
P       25.01322670      -3.77307499       2.08598560
In      16.34694348      -2.97537881       0.00163342
P       15.80040189      -0.45176965       0.00269113
In      12.73699935      -2.99295382       2.08896396
P       12.20762556      -0.47992062       2.09224404
In      16.89239969       0.46079541       2.08875299
P       16.19487688       2.96031570       2.08749156
In      20.45661170       0.61792981       0.00266477
P       19.69806198       3.06845035       0.00034251
In      14.97920984       3.83565304       0.00117596
P       14.68698643       6.38076019       0.00037288
In      18.52459146       3.92554617       2.08660126
P       18.28540671       6.45479209       2.08629352
In      17.04975879       7.27188352       0.00002603
P       16.84855693       9.80695631      -0.00015721
In      13.44804575       7.22882463       2.08659917
P       13.25017229       9.78708034       2.08640484
In      15.63316586      10.66210038       2.08611198
P       15.48632612      13.20626551       2.08575492
In      19.21999938      10.69014831      -0.00049613
P       19.06319147      13.20098614      -0.00100958
In      14.28520536      14.06904369      -0.00049632
P       14.21137331      16.62653827      -0.00116598
In      17.88303332      14.07245344       2.08524002
P        3.33886315      -3.84234230       2.08409241
In      23.76396081      -2.95051774      -0.00023129
P       23.98724300      -0.34059471      -0.00201910
In      19.98538455      -2.93182353       2.08703049
P       19.38067516      -0.40871622       2.08864893
In      23.06978407       0.83711039       2.08387916
P       23.20908727       3.33727087       2.08612971
In      26.46996119       0.46015219      -0.00247048
P       12.28426287     -17.41554618      -0.00116589
In      21.97468546       4.12590675      -0.00005675
P       21.86558363       6.62425337      -0.00034986
In      25.65842645       4.00181812       2.08522341
P       11.05266157     -13.91841779       2.08544070
In       9.83876276     -13.09361817      -0.00077970
P        9.66356253     -10.58202020      -0.00102737
In      20.62841848       7.39414622       2.08594287
P       20.45852043       9.90137445       2.08576796
In       8.42736849      -9.78560930       2.08515456
P        8.24325450      -7.28410011       2.08384987
In      12.06889990      -9.77526368       0.00008731
P       11.85719222      -7.25697354       0.00132057
In       7.02334080      -6.47311909      -0.00271729
P        6.85912708      -3.98826832      -0.00703005
In      10.62379896      -6.43420254       2.08775088
P       10.40654743      -3.92601079       2.09228450
In      16.64099924      17.47464314      -0.00219338
P        2.37734387      -0.42821498      -0.00590335
In      13.01433948      17.48292333       2.08512837
P       27.64499723      -0.40048683       2.08358596
In       1.20561210       0.41281514       2.08123627
P       15.90939046     -17.47338290       2.08408672
In       4.90873471       0.27430206      -0.01956795
P        5.13944377       2.86746300      -0.00393218
In      14.72644410     -16.60995930      -0.00193174
P       14.63559556     -14.04820264      -0.00086119
In       3.93228989       3.74125723       2.08286715
P       18.25554942     -14.12378825       2.08513297
In      17.06035347     -13.24112692      -0.00097250
P       16.89549848     -10.67323504       0.00001707
In      13.47246031     -13.14547637       2.08552447
P       13.28968262     -10.61419649       2.08626665
In      15.69132075      -9.79379741       2.08634672
P       15.46707855      -7.24664074       2.08708455
In      19.30047742      -9.83501167       0.00059144
P       19.09898244      -7.25001488       0.00074285
In      14.23292069      -6.38874976       0.00090358
P       13.98055599      -3.85229108       0.00249020
In      17.85437216      -6.39851679       2.08704540
P       17.61112012      -3.84007511       2.08772060
96
Lattice="14.45404925834546 20.441112492360922 0.0 14.45404925834546 -20.441112492360922 0.0 -2.220446049250313e-16 0.0 4.1725246150929305" Properties=species:S:1:pos:R:3 core_positions="_JSON [[7.227024629172732, 0.0, 2.0862623075464652], [21.68107388751819, 0.0, 2.0862623075464652]]" burgers_vectors="_JSON [[-0.9834734833333334, -0.9834734833333334, 1.9669469666666668], [0.9834734833333334, 0.9834734833333334, -1.9669469666666668]]" dislocation_types="_JSON [\"1/6<112> 90 degree partial\", \"1/6<112> 90 degree partial\"]" dislocation_classes="_JSON [\"<class 'matscipy.dislocation.DiamondGlide90degreePartial'>\", \"<class 'matscipy.dislocation.DiamondGlide90degreePartial'>\"]" energy=-94313.77254710744 pbc="T T T"
In       9.20826138      -3.05929472       0.00662137
P        8.59900011      -0.61582044       0.02347028
In       5.75921825      -3.02589133       2.07857270
P        6.12085158      -0.53501946       2.06246051
In       9.64455393       0.30453364       2.10577810
P        8.97279338       2.83929518       2.09044742
In      13.30190091       0.41509756       0.00514625
P       12.62010271       2.92358739       0.00258611
In       7.64504679       3.58895220       0.00270627
P        7.44146130       6.21556247       0.00150968
In      11.35473597       3.76432485       2.08876653
P       11.07713977       6.32777938       2.08714093
In       9.81596905       7.15466973       0.00083541
P        9.64407640       9.74377864       0.00046290
In       6.22962926       7.12048943       2.08740041
P       20.50953201     -10.72724723       2.08692294
In       8.43218155      10.62848168       2.08671421
P       22.71466907      -7.21868598       2.08664117
In      12.02519269      10.64476511       0.00015035
P       11.87459770      13.22130485      -0.00001342
In      21.47665151      -6.36487723       0.00041040
P       21.29154212      -3.75480980       0.00058172
In      10.66291217      14.08766242       2.08627001
P       25.00627886      -3.76179826       2.08609381
In      16.34436399      -2.97830872       0.00163343
P       15.81717430      -0.45215329       0.00250222
In      12.73590546      -2.99372563       2.08893685
P       12.21462237      -0.48015714       2.09212985
In      16.90360163       0.45993240       2.08854978
P       16.20496701       2.95887337       2.08747136
In      20.46038860       0.59040273       0.00116738
P       19.71771218       3.04474716       0.00033911
In      14.98361492       3.83482473       0.00116785
P       14.68923767       6.37949958       0.00036724
In      18.53499572       3.91484677       2.08661448
P       18.29106943       6.44318391       2.08628126
In      17.05213870       7.26751126       0.00002107
P       16.85059840       9.80290086      -0.00015984
In      13.44894280       7.22917819       2.08659597
P       13.25029009       9.78847507       2.08640801
In      15.63460414      10.65997536       2.08610992
P       15.48616282      13.20560237       2.08575839
In      19.21986789      10.69164453      -0.00049440
P       19.06273650      13.20182616      -0.00100661
In      14.28532918      14.06707922      -0.00049130
P       14.20882452      16.62713667      -0.00115299
In      17.88313176      14.07179546       2.08524301
P        3.33764224      -3.84263112       2.08410782
In      23.73543375      -2.98822027      -0.00010632
P       23.82672799      -0.34887279      -0.00076956
In      19.98327931      -2.95892842       2.08695899
P       19.42301148      -0.42599863       2.08743312
In      23.19990885       0.91905683       2.08547276
P       23.21985916       3.38321363       2.08607581
In      26.44863617       0.46381914      -0.00231676
P       12.27774320     -17.41204492      -0.00112536
In      21.96727242       4.14000144      -0.00012409
P       21.86668603       6.62955002      -0.00032969
In      25.68044822       4.02802675       2.08526131
P       11.05565614     -13.90461820       2.08544663
In       9.84025632     -13.08541279      -0.00077750
P        9.66236631     -10.57748125      -0.00101884
In      20.62615173       7.39806306       2.08595756
P       20.45789971       9.90221765       2.08577037
In       8.42590005      -9.78272374       2.08516475
P        8.24251580      -7.28238618       2.08388403
In      12.06856273      -9.77305103       0.00008486
P       11.85633203      -7.25585070       0.00130273
In       7.02302534      -6.47199876      -0.00267555
P        6.85835567      -3.98732877      -0.00685569
In      10.62332099      -6.43341601       2.08772842
P       10.40567216      -3.92562893       2.09213928
In      16.64098674      17.47258793      -0.00217465
P        2.36895042      -0.42984911      -0.00585337
In      13.01342433      17.47874625       2.08514087
P       27.61633861      -0.40017045       2.08369782
In       1.20237254       0.41294090       2.08124195
P       15.90791613     -17.47416538       2.08409711
In       4.90822805       0.27456859      -0.01907422
P        5.13926454       2.86729425      -0.00385896
In      14.73232393     -16.60706463      -0.00192863
P       14.63455391     -14.04753994      -0.00086292
In       3.93463420       3.74216684       2.08291358
P       18.25539319     -14.12390522       2.08514580
In      17.06151596     -13.24058178      -0.00096448
P       16.89372281     -10.67458311       0.00001715
In      13.47738571     -13.13778218       2.08552128
P       13.29030985     -10.61011363       2.08626505
In      15.69203801      -9.79196012       2.08634601
P       15.46523032      -7.24621608       2.08708249
In      19.29879420      -9.83844478       0.00058977
P       19.09343159      -7.25562488       0.00074421
In      14.23173451      -6.38850102       0.00090109
P       13.97855514      -3.85211965       0.00247071
In      17.85192375      -6.40114025       2.08704793
P       17.60546276      -3.84221756       2.08772803
96