96
Lattice="14.454803244667836 20.44217992297937 0.0 14.454803244667836 -20.44217992297937 0.0 0.0 0.0 4.172742762050163" Properties=species:S:1:pos:R:3:x_err:R:1:y_err:R:1:z_err:R:1:total_err:R:1:forces:R:3 energy=-94314.82085293597 free_energy=-94314.82085293597 stress="-0.00016982610354293875 -0.009907778642702383 0.0008286366921067446 -0.009907778642702383 -0.0016762780428722901 0.0005799399902851495 0.0008286366921067446 0.0005799399902851495 0.003966248775474451" pbc="T T T"
P       10.09168739      -0.41060118       3.38053662      -0.02020136       0.00239014       0.03274162       0.03854636      -0.00030277      -0.00033519       0.00013324
P        5.91621660      -0.42316467       2.07583337      -0.00835303      -0.00080536       0.00403308       0.00931061      -0.00021742      -0.00019950       0.00015974
P        8.34547979       3.14606610       2.15398092       0.01070738      -0.00320122      -0.01295824       0.01711174      -0.00012548      -0.00044998      -0.00001113
P       11.92183241       2.94205605       0.32229853       0.01597040      -0.00991025      -0.02161771       0.02864598      -0.00047778       0.00033851      -0.00002825
P        7.18477857       6.48470133       0.06460217       0.00435811      -0.00050969      -0.00112159       0.00452889      -0.00055138       0.00041196       0.00007517
P       10.80628464       6.44186815       2.23230584       0.00380351      -0.00369126      -0.01265276       0.01371804      -0.00057784      -0.00050527      -0.00004080
P        9.63660731       9.83672440       0.05656778      -0.00276360       0.00310158       0.00397719       0.00575111      -0.00007366       0.00055789       0.00003033
P       20.47069105     -10.59356861       2.09963694      -0.00093686       0.00425799       0.01370392       0.01438074       0.00051784      -0.00022686      -0.00005728
P       22.90563393      -7.21734288       2.09221459      -0.01112182       0.01036335       0.02524652       0.02947000      -0.00019895      -0.00001664       0.00003537
P       12.07111922      13.20117059       0.00999169      -0.00701730      -0.00337411       0.00259400       0.00820707      -0.00067852       0.00022381      -0.00009758
P       21.71075497      -3.82603921       4.15783797      -0.01765186       0.01787945       0.04198878       0.04893179       0.00024185      -0.00008822       0.00016755
P       25.32246486      -3.83537460       2.08349117      -0.01047607       0.00025654       0.01022625       0.01464207      -0.00024813      -0.00038543      -0.00022227
P       16.95725323      -0.44191388       4.23604323      -0.06887209      -0.00076758       0.15383138       0.16854687       0.00001220      -0.00007478      -0.00008930
P       13.64487178      -0.67434423       1.23052360      -0.02698855      -0.03756275       0.01940049       0.05015696       0.00049002       0.00064208       0.00014256
P       15.60989037       2.93411988       2.25879415       0.03414126      -0.00565339      -0.06328125       0.07212561       0.00004827      -0.00066436       0.00007884
P       19.24906344       2.96638625       0.06224767       0.03665319       0.01022236      -0.08276141       0.09109009       0.00094156       0.00007823      -0.00028056
P       14.41645670       6.32658481       0.09264063       0.00852838      -0.01510374      -0.03422599       0.03837023       0.00002808      -0.00008625      -0.00000437
P       18.03887630       6.36382989       2.12859131       0.01256025      -0.00122069      -0.04270438       0.04452993       0.00012764       0.00031585      -0.00027499
P       16.86705024       9.77477134       0.01711016      -0.00128159      -0.00603407      -0.01831711       0.01932793       0.00051012      -0.00028597       0.00005606
P       13.26002223       9.78192271       2.13037039      -0.00070786      -0.00960596      -0.01273307       0.01596580      -0.00014064       0.00090541       0.00004271
P       15.69209909      13.19733832       2.08120919      -0.00742617      -0.00460268      -0.00388588       0.00956205       0.00052955       0.00028105       0.00001949
P       19.31810948      13.21656410      -0.03031068      -0.00919821      -0.00012973      -0.00089382       0.00924244      -0.00056194      -0.00057148      -0.00000977
P       14.48602970      16.60096770      -0.01307537      -0.00998920      -0.00231772       0.00335598       0.01078974      -0.00015660      -0.00035477       0.00002613
P        3.66551719      -3.82811236       2.04911649      -0.01151690      -0.00099940       0.00499694       0.01259394      -0.00019758       0.00001462      -0.00007108
P       24.10392356      -0.42979061       4.17638307      -0.00850497       0.00183235      -0.01861146       0.02054455      -0.00010925      -0.00049301       0.00023345
P       20.53151483      -0.42925365       2.07256742      -0.06107715       0.03647168       0.18517931       0.19837333       0.00001316      -0.00065725       0.00051491
P       22.86306656       2.98343053       2.11022241       0.02002793       0.01451512      -0.04369587       0.05021091       0.00069541       0.00043568      -0.00010701
P       26.47071516       2.97662260       0.00682058       0.01198147       0.00396465      -0.01653241       0.02079890      -0.00005610      -0.00028920       0.00004470
P       21.65770687       6.38698409       0.01334410       0.01337166       0.01598601      -0.02509836       0.03262333       0.00000105      -0.00033399       0.00002951
P       10.81645787     -14.05767285       2.08087363       0.01111427       0.00686240      -0.01020373       0.01657515       0.00026193      -0.00061805      -0.00010624
P        9.63031783     -10.64964696       4.13902868       0.00096794       0.00472888      -0.00215436       0.00528588       0.00023508      -0.00012442      -0.00002045
P       20.47433812       9.79217918       2.07888768      -0.00137380       0.00483148      -0.01086136       0.01196661      -0.00002201       0.00035658      -0.00000426
P        8.46510825      -7.23083423       2.01702587      -0.01052337      -0.00142108       0.00682040       0.01262057      -0.00044118      -0.00010048      -0.00036186
P       12.08428972      -7.27792048       4.03014466      -0.00983016      -0.00312387       0.02041113       0.02286930      -0.00027194       0.00007634       0.00007353
P        7.33284772      -3.77114187       4.09411085      -0.01488658      -0.00195778       0.01188520       0.01914944       0.00001219       0.00028839      -0.00060161
P       10.93209707      -3.86684952       1.79463214      -0.02301590      -0.00660817       0.03153833       0.03959881      -0.00023434      -0.00010873      -0.00004024
P        2.34974909      -0.44051618      -0.00088467      -0.00835773      -0.00070506       0.00115748       0.00846691      -0.00040264       0.00007263      -0.00007294
P       27.68359065      -0.43847070       2.08502993      -0.00952684      -0.00066039       0.00241825       0.00985113       0.00023512       0.00019819      -0.00001268
P       15.61406393     -17.46711037       2.09100742       0.00900979      -0.00094945      -0.00648546       0.01114177      -0.00020557      -0.00016030       0.00007721
P        4.75101700       3.00617199       0.02602514       0.00904281      -0.00217929      -0.00324189       0.00985046       0.00008200      -0.00028840      -0.00043902
P       14.43242820     -14.06445684       4.15941310       0.00883553       0.00052294      -0.00133453       0.00895103       0.00013280       0.00013529      -0.00001990
P       18.04594301     -14.04307505       2.09719051       0.00742396      -0.00109223       0.00313597       0.00813280       0.00019595       0.00023098       0.00017378
P       16.87458407     -10.67099127       4.13674651       0.00284519      -0.00144022       0.01405056       0.01440790      -0.00016323      -0.00037363      -0.00002641
P       13.25168213     -10.67194725       2.02600570       0.00201806       0.00068057       0.00802403       0.00830186       0.00003566       0.00006702      -0.00002410
P       15.70652820      -7.30698620       1.97674964      -0.00683144      -0.00505754       0.03100883       0.03215268       0.00020096      -0.00001793       0.00000134
P       19.29293130      -7.22195022       4.14361819      -0.00973870       0.00752589       0.03625296       0.03828522       0.00082020       0.00025662      -0.00011777
P       14.53451662      -3.94700383       4.03666129      -0.02582919      -0.01467262       0.06491520       0.07138919      -0.00041474      -0.00013197      -0.00013155
P       18.10658016      -3.83788138       2.04455498      -0.02511150       0.00787710       0.07009636       0.07487413       0.00024180       0.00093616      -0.00009876
In       9.77523311      -2.95879218       3.85408534      -0.01500816       0.00419093       0.02959933       0.03345040      -0.00016440       0.00044763      -0.00021012
In       6.08437703      -2.99684721       2.02308428      -0.01064627      -0.00023931       0.01030356       0.01481769       0.00050858       0.00052480       0.00051512
In       8.10719230       0.68516933       2.44177256      -0.00354760      -0.00311608      -0.00806392       0.00934464      -0.00007166       0.00056273       0.00007678
In      11.49771128       0.49010082       1.17365350      -0.00085593      -0.00371247       0.02424163       0.02453919      -0.00022385      -0.00071176      -0.00005791
In       7.10604972       3.95982808       0.06118236       0.01178669      -0.00279826      -0.01169909       0.01684117       0.00032216      -0.00000357       0.00012465
In      10.80079878       3.90697441       2.38507691       0.01487936      -0.00709843      -0.02038628       0.02621800       0.00015009      -0.00034352       0.00011743
In       9.61246228       7.29542434       0.13221049       0.00449166      -0.00038869      -0.01065287       0.01156762      -0.00007970       0.00027381       0.00003642
In       5.97491592       7.31446406       2.14314019       0.00655751       0.00214335       0.00042169       0.00691178      -0.00009370      -0.00032693       0.00012416
In       8.43236581      10.68066126       2.13582889      -0.00230518       0.00574093       0.00622538       0.00877653       0.00036987      -0.00035984       0.00008830
In      12.06287366      10.64720139       0.04211284       0.00011363      -0.00612307      -0.01049652       0.01215244      -0.00056235      -0.00000855       0.00002632
In      21.69960108      -6.37248785       4.17373196      -0.01270855       0.01082544       0.02833428       0.03288660      -0.00019373       0.00024707       0.00005597
In      10.86547271      14.05409266       2.09485494      -0.00635323      -0.00241398       0.00436375       0.00807670       0.00019342       0.00025915       0.00015786
In      16.89529372      -2.98758637       4.12493296      -0.03826740      -0.00246472       0.07478518       0.08404340       0.00017055       0.00068358      -0.00008950
In      13.36218928      -3.04642607       1.96050089      -0.02663986      -0.00912977       0.07064602       0.07605192       0.00038446       0.00034052       0.00008855
In      15.69563764       0.37178148       2.19121393       0.11100285      -0.01384734      -0.16267985       0.19742876      -0.00019046      -0.00004273       0.00014058
In      19.32504358       0.40583001      -0.01718439       0.11207589       0.00384581      -0.20698187       0.23540877      -0.00024021      -0.00033154      -0.00008179
In      14.37948222       3.74224479       0.19037245       0.01995731      -0.02168750      -0.05729142       0.06442786      -0.00017720      -0.00004573      -0.00016919
In      18.02229222       3.80021660       2.15734629       0.02669335      -0.00146380      -0.07961645       0.08398486      -0.00019613       0.00008948       0.00005845
In      16.82884930       7.20825752       0.04402277       0.00530295      -0.00727747      -0.04016479       0.04116179       0.00010720       0.00015952       0.00013033
In      13.24632078       7.22445311       2.17792236       0.00678991      -0.01294497      -0.03117351       0.03443055       0.00020104      -0.00096072      -0.00003350
In      15.67067332      10.63798214       2.10349525      -0.00229845      -0.00582717      -0.01676759       0.01789947       0.00018822      -0.00052851      -0.00006598
In      19.27564659      10.64872573      -0.00705776      -0.00402338       0.00118819      -0.01051830       0.01132405      -0.00007361       0.00015347      -0.00001575
In      14.48207436      14.04392554      -0.00473841      -0.00646293      -0.00358543      -0.00277035       0.00789301      -0.00038535       0.00002236       0.00019708
In      18.10230338      14.04903735       2.05763394      -0.00836179      -0.00066591      -0.00074975       0.00842170       0.00065640       0.00017360      -0.00006595
In      24.11550279      -2.98331199       4.16964022      -0.00908995      -0.00120196       0.01175883       0.01491114      -0.00043422       0.00032169       0.00045073
In      20.50280632      -2.97930590       2.06850140      -0.02721955       0.00208409       0.04244983       0.05047015      -0.00015244       0.00043245      -0.00021855
In      22.91312993       0.42977544       2.09072422       0.01928259       0.01936429      -0.03096464       0.04129895       0.00013712      -0.00040030      -0.00011905
In      26.49272151       0.42351687       4.17228037      -0.00328547       0.00529267       0.00292603       0.00688246       0.00032094       0.00000897      -0.00003200
In      21.64908438       3.83122913       0.02635168       0.02675644       0.02299835      -0.04747013       0.05914596      -0.00053449      -0.00011426      -0.00011382
In      25.26575540       3.83200274       2.09385880       0.01986265       0.01022562      -0.01903748       0.02935156      -0.00056647       0.00006270      -0.00000899
In       9.61101923     -13.20382977       4.16666747       0.01340873       0.00913257      -0.01083717       0.01951005      -0.00060240      -0.00002631      -0.00002367
In      20.44638573       7.23164714       2.10059338       0.00759202       0.00822257      -0.02520349       0.02757653       0.00017157      -0.00048599      -0.00015031
In       8.42882247      -9.79267650       2.05175313      -0.00127327       0.00195033      -0.00225346       0.00324085      -0.00045991      -0.00028444       0.00000968
In      12.04827006      -9.82162468       4.10617288       0.00123374       0.00027205       0.00823260       0.00832898       0.00039132       0.00004507       0.00005239
In       7.27910619      -6.35703114       4.10445984      -0.00906692      -0.00001647       0.00626308       0.01101978       0.00026366      -0.00019991       0.00023594
In      10.89214940      -6.41300110       1.93391338      -0.01081624      -0.00233096       0.02058852       0.02337331       0.00049560       0.00025513      -0.00011663
In       2.43982636      -2.99898080       4.14039928      -0.00894079      -0.00069224       0.00465171       0.01010224       0.00035647       0.00055317      -0.00000130
In      13.27398900      17.44888319       2.07489055      -0.00776331      -0.00153891       0.00391102       0.00882799       0.00022101       0.00054989       0.00005278
In       1.15607635       0.42387973       2.08636220      -0.00612542      -0.00110974       0.00078613       0.00627458      -0.00012109      -0.00047827      -0.00009318
In       4.70543057       0.46220297      -0.00298722      -0.00546399      -0.00338229       0.00356015       0.00734641       0.00018143       0.00005362      -0.00024503
In      14.41248535     -16.61082371       4.17630779       0.01374762       0.00143536      -0.00702328       0.01550431       0.00007238      -0.00031099       0.00003322
In       3.54199186       3.85846587       2.10959133       0.01085598      -0.00160684      -0.00307767       0.01139765       0.00023826       0.00072698       0.00043635
In      16.83456950     -13.20970992       4.17839663       0.00914255      -0.00128737       0.00387455       0.01001278       0.00059739      -0.00066618      -0.00013248
In      13.22581665     -13.21736803       2.06949133       0.01158498       0.00265049      -0.00129534       0.01195470       0.00016655      -0.00006730       0.00001650
In      15.66718676      -9.83891723       2.04361141       0.00242094      -0.00329772       0.01513391       0.01567709      -0.00075639       0.00004499       0.00002733
In      19.26198523      -9.76184340       4.17962053      -0.00038519       0.00477267       0.01567233       0.01638745       0.00011382       0.00022855       0.00010715
In      14.51199807      -6.46290555       4.05162414      -0.00973044      -0.00881616       0.03201082       0.03459912      -0.00033403       0.00049064      -0.00011124
In      18.08540090      -6.38100323       2.05149213      -0.01315134       0.00481620       0.03881738       0.04126673      -0.00014644       0.00010457       0.00005247
96
Lattice="14.454803244667836 20.44217992297937 0.0 14.454803244667836 -20.44217992297937 0.0 0.0 0.0 4.172742762050163" Properties=species:S:1:pos:R:3:x_err:R:1:y_err:R:1:z_err:R:1:total_err:R:1:forces:R:3 energy=-94314.82085293597 free_energy=-94314.82085293597 stress="-0.00016982610354293875 -0.009907778642702383 0.0008286366921067446 -0.009907778642702383 -0.0016762780428722901 0.0005799399902851495 0.0008286366921067446 0.0005799399902851495 0.003966248775474451" pbc="T T T"
P        8.41738169      -0.72247753      -0.61397112       0.00076991       0.00045628       0.00845610       0.00850333      -0.00030277      -0.00033519       0.00013324
P        6.30475920      -0.68933834       2.71429664       0.00122284       0.00063020      -0.00918151       0.00928400      -0.00021742      -0.00019950       0.00015974
P        8.91283235       2.86506471       1.91304320       0.00164333       0.00025425       0.00171403       0.00238811      -0.00012548      -0.00044998      -0.00001113
P       12.52085637       2.94341203      -0.20918658       0.00074514      -0.00124131       0.00201241       0.00247908      -0.00047778       0.00033851      -0.00002825
P        7.41023207       6.27985750      -0.08804191      -0.00027327      -0.00231955       0.00165720       0.00286379      -0.00055138       0.00041196       0.00007517
P       11.01497605       6.37005536       1.97632341      -0.00049765      -0.00094419       0.00227019       0.00250857      -0.00057784      -0.00050527      -0.00004080
P        9.60890468       9.81907959      -0.06902112      -0.00105285      -0.00172221       0.00156341       0.00255318      -0.00007366       0.00055789       0.00003033
P       20.49252750     -10.65291727       2.02154475      -0.00054358      -0.00210135       0.00056002       0.00224160       0.00051784      -0.00022686      -0.00005728
P       22.70596642      -7.11313894       2.02049990      -0.00153812      -0.00227231       0.00110136       0.00295672      -0.00019895      -0.00001664       0.00003537
P       11.88718127      13.24416828       0.04150389      -0.00195882       0.00018311      -0.00064632       0.00207080      -0.00067852       0.00022381      -0.00009758
P       21.35349212      -3.55977487      -0.11589850      -0.00044419      -0.00250180       0.00310719       0.00401384       0.00024185      -0.00008822       0.00016755
P       25.07613233      -3.75304197       2.20040781      -0.00199151      -0.00108339      -0.00254811       0.00341068      -0.00024813      -0.00038543      -0.00022227
P       15.60575771      -0.43121594      -0.33402156       0.00569470       0.00002582       0.00860700       0.01032040       0.00001220      -0.00007478      -0.00008930
P       12.00357335      -0.48878893       1.72157926       0.00567506      -0.00018888       0.00962882       0.01117838       0.00049002       0.00064208       0.00014256
P       16.09815547       2.99785954       1.90235039      -0.00055592       0.00242847       0.00315717       0.00402172       0.00004827      -0.00066436       0.00007884
P       19.61867247       3.09588909      -0.15011025      -0.00054544       0.00282471       0.00085518       0.00300130       0.00094156       0.00007823      -0.00028056
P       14.61749182       6.39964877      -0.08306339      -0.00174506       0.00157073       0.00179858       0.00295759       0.00002808      -0.00008625      -0.00000437
P       18.22341475       6.47201574       2.04774296      -0.00068850       0.00265887       0.00161661       0.00318701       0.00012764       0.00031585      -0.00027499
P       16.81768382       9.80740796       0.02165457      -0.00111521       0.00112574       0.00059309       0.00169197       0.00051012      -0.00028597       0.00005606
P       13.21829174       9.80976642       2.06615361      -0.00160229       0.00110900       0.00098511       0.00218350      -0.00014064       0.00090541       0.00004271
P       15.49043237      13.20441433       2.17116322      -0.00112749       0.00060790      -0.00082032       0.00152108       0.00052955       0.00028105       0.00001949
P       19.07541661      13.12765862       0.12048300      -0.00026794       0.00095838      -0.00088142       0.00132935      -0.00056194      -0.00057148      -0.00000977
P       14.26798186      16.63183494       0.15400871      -0.00156662      -0.00022744      -0.00406030       0.00435799      -0.00015660      -0.00035477       0.00002613
P        3.35446950      -3.89294821       2.26393581      -0.00053974       0.00010164      -0.00593793       0.00596328      -0.00019758       0.00001462      -0.00007108
P       24.17789866      -0.31995026       0.48321796      -0.00222972      -0.00127633       0.00047423       0.00261257      -0.00010925      -0.00049301       0.00023345
P       19.15620704      -0.34695890       1.58169747       0.00270955       0.00026861       0.00948283       0.00986600       0.00001316      -0.00065725       0.00051491
P       23.16861682       3.10883398       2.12800280      -0.00058301       0.00130678      -0.00324046       0.00354234       0.00069541       0.00043568      -0.00010701
P       12.30377883     -17.44210849       0.13691854       0.00065853       0.00111963      -0.00279345       0.00308068      -0.00005610      -0.00028920       0.00004470
P       21.84706581       6.50105228       0.06719386      -0.00010679       0.00216318      -0.00186063       0.00285530       0.00000105      -0.00033399       0.00002951
P       11.02865171     -14.03228444       2.18605180       0.00023659       0.00068750      -0.00240679       0.00251421       0.00026193      -0.00061805      -0.00010624
P        9.67234507     -10.67677580       0.09669075       0.00095843       0.00155584      -0.00057365       0.00191528       0.00023508      -0.00012442      -0.00002045
P       20.46350398       9.81516942       2.16533456       0.00035738       0.00241499      -0.00050997       0.00249399      -0.00002201       0.00035658      -0.00000426
P        8.26768604      -7.37545350       2.22199153      -0.00039011       0.00147078       0.00017535       0.00153171      -0.00044118      -0.00010048      -0.00036186
P       11.86777540      -7.30646956      -0.01039048       0.00063676       0.00002777       0.00087649       0.00108373      -0.00027194       0.00007634       0.00007353
P        6.86807810      -4.10542566       0.24078844       0.00097674       0.00104746      -0.00375767       0.00402135       0.00001219       0.00028839      -0.00060161
P       10.39908573      -3.97819947       1.95191137       0.00334725      -0.00021983       0.00047376       0.00338775      -0.00023434      -0.00010873      -0.00004024
P        2.57127158      -0.43897228       0.31503502      -0.00529932       0.00010203      -0.00958904       0.01095640      -0.00040264       0.00007263      -0.00007294
P       27.81670748      -0.40661801       2.37982814      -0.00482837      -0.00027881      -0.00635005       0.00798211       0.00023512       0.00019819      -0.00001268
P       15.92721107     -17.47467581       2.23884798       0.00020170      -0.00116161      -0.00324389       0.00345150      -0.00020557      -0.00016030       0.00007721
P        5.14848579       2.90372459       0.14025376      -0.00181971      -0.00037281      -0.00431156       0.00469467       0.00008200      -0.00028840      -0.00043902
P       14.64040666     -14.05978219       0.07877069       0.00101541      -0.00049567      -0.00201591       0.00231098       0.00013280       0.00013529      -0.00001990
P       18.25110910     -14.09250862       2.12320538       0.00008281      -0.00125589      -0.00202359       0.00238307       0.00019595       0.00023098       0.00017378
P       16.90302489     -10.63606196      -0.01052835       0.00029355      -0.00095189      -0.00062590       0.00117644      -0.00016323      -0.00037363      -0.00002641
P       13.28945179     -10.66541343       2.12204166       0.00090714      -0.00075085      -0.00042853       0.00125312       0.00003566       0.00006702      -0.00002410
P       15.47103818      -7.23462773       2.02995103       0.00042131      -0.00124554       0.00073718       0.00150742       0.00020096      -0.00001793       0.00000134
P       19.12043859      -7.15747826      -0.07942270      -0.00062569      -0.00242835       0.00069106       0.00260114       0.00082020       0.00025662      -0.00011777
P       13.94993293      -3.85020763      -0.14883298       0.00333302      -0.00087768       0.00284589       0.00446972      -0.00041474      -0.00013197      -0.00013155
P       17.59585817      -3.78074847       1.94617073       0.00227118      -0.00180080       0.00160574       0.00331354       0.00024180       0.00093616      -0.00009876
In       9.16728721      -3.18966232      -0.15002863       0.00295905       0.00108812       0.00038362       0.00317602      -0.00016440       0.00044763      -0.00021012
In       5.76304384      -3.19256733       2.35425817       0.00005255       0.00120380      -0.00376749       0.00395548       0.00050858       0.00052480       0.00051512
In       9.50361527       0.36630639       1.56766272       0.00265611      -0.00162830       0.00946882       0.00996820      -0.00007166       0.00056273       0.00007678
In      13.14193465       0.43285636      -0.34803994       0.00469941      -0.00041496       0.00903474       0.01019231      -0.00022385      -0.00071176      -0.00005791
In       7.60995841       3.68252208      -0.12732975      -0.00016016      -0.00326321       0.00097844       0.00341051       0.00032216      -0.00000357       0.00012465
In      11.29805928       3.81504580       1.88919569       0.00088342      -0.00050204       0.00131892       0.00166494       0.00015009      -0.00034352       0.00011743
In       9.77837156       7.23195065      -0.10319666      -0.00161341      -0.00221508       0.00210353       0.00345463      -0.00007970       0.00027381       0.00003642
In       6.20374722       7.19944470       2.01203933       0.00081418      -0.00237980       0.00127513       0.00281998      -0.00009370      -0.00032693       0.00012416
In       8.40444610      10.73157541       2.01774443      -0.00110509      -0.00300659       0.00144524       0.00351419       0.00036987      -0.00035984       0.00008830
In      12.00438212      10.67842610      -0.01749236      -0.00268566      -0.00008965       0.00079922       0.00280349      -0.00056235      -0.00000855       0.00002632
In      21.49358482      -6.17756090      -0.07571449      -0.00146774      -0.00362006       0.00115223       0.00407268      -0.00019373       0.00024707       0.00005597
In      10.67834385      14.12688795       2.13055752      -0.00232619      -0.00161290      -0.00079688       0.00294069       0.00019342       0.00025915       0.00015786
In      16.31186530      -2.93029121      -0.15651489       0.00213902      -0.00143116       0.00177217       0.00312477       0.00017055       0.00068358      -0.00008950
In      12.71061157      -2.99283400       1.92589790       0.00296724      -0.00052798       0.00348328       0.00460614       0.00038446       0.00034052       0.00008855
In      16.71614253       0.49409747       1.75073903       0.00188856       0.00371756       0.00835536       0.00933804      -0.00019046      -0.00004273       0.00014058
In      20.28559206       0.62347789      -0.50805387      -0.00028346       0.00257823       0.01089948       0.01120386      -0.00024021      -0.00033154      -0.00008179
In      14.89284070       3.85724236      -0.17503860      -0.00209675       0.00186657       0.00295034       0.00407247      -0.00017720      -0.00004573      -0.00016919
In      18.44806357       3.94294678       1.94171598      -0.00129634       0.00278100       0.00037526       0.00309116      -0.00019613       0.00008948       0.00005845
In      16.99220285       7.27343553      -0.03610687      -0.00259755       0.00137856       0.00167468       0.00338412       0.00010720       0.00015952       0.00013033
In      13.39481343       7.25617565       2.00862822      -0.00295877       0.00151442       0.00174714       0.00375504       0.00020104      -0.00096072      -0.00003350
In      15.60839440      10.65991446       2.10967710      -0.00234533       0.00129948       0.00045102       0.00271894       0.00018822      -0.00052851      -0.00006598
In      19.21908293      10.60212838       0.07878267      -0.00136174       0.00200060      -0.00037453       0.00244888      -0.00007361       0.00015347      -0.00001575
In      14.29762279      14.07540744       0.08750428      -0.00178523      -0.00020533      -0.00104163       0.00207706      -0.00038535       0.00002236       0.00019708