 +-------------------------------------------------+
 |                                                 |
 |      CCC   AA    SSS  TTTTT  EEEEE  PPPP        |
 |     C     A  A  S       T    E      P   P       |
 |     C     AAAA   SS     T    EEE    PPPP        |
 |     C     A  A     S    T    E      P           |
 |      CCC  A  A  SSS     T    EEEEE  P           |
 |                                                 |
 +-------------------------------------------------+
 |                                                 |
 | Welcome to Academic Release CASTEP version 24.1 |
 | Ab Initio Total Energy Program                  |
 |                                                 |
 | Authors:                                        |
 | M. Segall, M. Probert, C. Pickard, P. Hasnip,   |
 | S. Clark, K. Refson, J. R. Yates,               |
 | A. Bartok-Partay, M. Payne                      |
 |                                                 |
 | Contributors:                                   |
 | P. Lindan, P. Haynes, J. White, V. Milman,      |
 | N. Govind, M. Gibson, P. Tulip, V. Cocula,      |
 | B. Montanari, D. Quigley, M. Glover,            |
 | L. Bernasconi, A. Perlov, M. Plummer,           |
 | E. McNellis, J. Meyer, J. Gale, D. Jochym       |
 | J. Aarons, B. Walker, R. Gillen, D. Jones       |
 | T. Green, I. J. Bush, C. J. Armstrong,          |
 | E. J. Higgins, E. L. Brown, M. S. McFly,        |
 | J. Wilkins, B-C. Shih, P. J. P. Byrne,          |
 | R. J. Maurer, J. C. Womack, J. Dziedzic,        |
 | L. LeBlanc, T. K. Stenczel, J. Kermode,         |
 | S. Sturniolo, B. Shi, B. Durham, M. Evans,      |
 | M. J. Smith, A. Tamerus, Z. Hawkhead,           |
 | V. Ravindran, T. Hollins, S. A. Joyce,          |
 | R. T. Strong, A. M. Reilly, S. J. Donaldson     |
 |                                                 |
 | Copyright (c) 2000 - 2023                       |
 |                                                 |
 |     Distributed under license from Cambridge    |
 |     Enterprise for academic use only.           |
 |                                                 |
 | Please cite                                     |
 |                                                 |
 |     "First principles methods using CASTEP"     |
 |                                                 |
 |         Zeitschrift fuer Kristallographie       |
 |           220(5-6) pp. 567-570 (2005)           |
 |                                                 |
 | S. J. Clark, M. D. Segall, C. J. Pickard,       |
 | P. J. Hasnip, M. J. Probert, K. Refson,         |
 | M. C. Payne                                     |
 |                                                 |
 |       in all publications arising from          |
 |              your use of CASTEP                 |
 |                                                 |
 +-------------------------------------------------+
 |                                                 |
 |              http://www.castep.org              |
 |                                                 |
 +-------------------------------------------------+



 Compiled for  GNU 11.2.0 on 04-04-2024 18:39:17
 from code version 6355fd106 Castep241_branch Thu Mar 7 17:56:19 2024 +0000
 Compiler: GNU Fortran 11.2.0; Optimisation: FAST
 Comms   : MPI VERSION : CRAY MPICH version 8.1.23.14 (ANL base 3.4a2)
 MATHLIBS: default (LAPACK version 3.10.1)
 FFT Lib : fftw3 version commercial-fftw-3.3.10-sse2-avx-avx2-avx2_128
 Fundamental constants values: CODATA 2018

 Run started: Tue, 29 Apr 2025 13:32:58 +0100

 Atomic calculation performed for P: 1s2 2s2 2p6 3s2 3p3

 Converged in 47 iterations to an ae energy of -9309.074 eV

   ============================================================                
   | Pseudopotential Report - Date of generation 29-04-2025   |                
   ------------------------------------------------------------                
   | Element: P Ionic charge:  5.00 Level of theory: RSCAN    |                
   | Atomic Solver: Koelling-Harmon                           |                
   |                                                          |                
   |               Reference Electronic Structure             |                
   |         Orbital         Occupation         Energy        |                
   |            3s              2.000           -0.535        |                
   |            3p              3.000           -0.209        |                
   |                                                          |                
   |                 Pseudopotential Definition               |                
   |        Beta     l      e      Rc     scheme   norm       |                
   |          1      0   -0.535   1.807     qc      0         |                
   |          2      0    0.250   1.807     qc      0         |                
   |          3      1   -0.209   1.807     qc      0         |                
   |          4      1    0.250   1.807     qc      0         |                
   |          5      2    0.000   1.807     qc      0         |                
   |          6      2    0.250   1.807     qc      0         |                
   |         loc     3    0.000   1.807     pn      0         |                
   |                                                          |                
   | Augmentation charge Rinner = 1.263                       |                
   | Partial core correction Rc = 1.263                       |                
   ------------------------------------------------------------                
   | "3|1.8|4|4|5|30:31:32"                                   |                
   ------------------------------------------------------------                
   |      Author: Chris J. Pickard, Cambridge University      |                
   ============================================================                
 Warning: otfg_output_psp cannot write out meta-GGA pseudopotentials presently.

 Atomic calculation performed for In:
 1s2 2s2 2p6 3s2 3p6 3d10 4s2 4p6 4d10 5s2 5p1

 Converged in 84 iterations to an ae energy of -160093.328 eV

   ============================================================                
   | Pseudopotential Report - Date of generation 29-04-2025   |                
   ------------------------------------------------------------                
   | Element: In Ionic charge: 13.00 Level of theory: RSCAN   |                
   | Atomic Solver: Koelling-Harmon                           |                
   |                                                          |                
   |               Reference Electronic Structure             |                
   |         Orbital         Occupation         Energy        |                
   |            4d             10.000           -0.711        |                
   |            5s              2.000           -0.313        |                
   |            5p              1.000           -0.095        |                
   |                                                          |                
   |                 Pseudopotential Definition               |                
   |        Beta     l      e      Rc     scheme   norm       |                
   |          1      0   -0.313   2.501     qc      0         |                
   |          2      0    0.250   2.501     qc      0         |                
   |          3      1   -0.095   2.501     qc      0         |                
   |          4      1    0.250   2.501     qc      0         |                
   |          5      2   -0.711   2.207     qc      0         |                
   |          6      2    0.250   2.207     qc      0         |                
   |         loc     3    0.000   2.501     pn      0         |                
   |                                                          |                
   | Augmentation charge Rinner = 1.504                       |                
   | Partial core correction Rc = 1.504                       |                
   ------------------------------------------------------------                
   | "3|2.5|2.5|1.5|7|8|9|50:51:42U2.2U2.2"                   |                
   ------------------------------------------------------------                
   |      Author: Chris J. Pickard, Cambridge University      |                
   ============================================================                
 Warning: otfg_output_psp cannot write out meta-GGA pseudopotentials presently.

 Pseudo atomic calculation performed for P 3s2 3p3

 Converged in 23 iterations to a total energy of -208.0292 eV

 Pseudo atomic calculation performed for In 4d10 5s2 5p1

 Converged in 42 iterations to a total energy of -1747.4501 eV
 Calculation parallelised over 108 processes.
 Data is distributed by G-vector(3-way) and k-point(36-way)
 Each process may use up to 16 threads.

 ************************************ Title ************************************
 

 ***************************** General Parameters ******************************
  
 output verbosity                               : normal  (1)
 write checkpoint data to                       : In_Vacancy_Migration_3->60_Singlepoints_6.check
 type of calculation                            : single point energy
 stress calculation                             : off
 density difference calculation                 : off
 electron localisation func (ELF) calculation   : off
 Hirshfeld analysis                             : on
 polarisation (Berry phase) analysis            : off
 molecular orbital projected DOS                : off
 deltaSCF calculation                           : off
 unlimited duration calculation
 timing information                             : on
 memory usage estimate                          : on
 write extra output files                       : on
 write final potential to formatted file        : off
 write final density to formatted file          : off
 write BibTeX reference list                    : on
 write OTFG pseudopotential files               : on
 write electrostatic potential file             : on
 write bands file                               : on
 checkpoint writing                             : off
  
 output         length unit                     : A
 output           mass unit                     : amu
 output           time unit                     : ps
 output         charge unit                     : e
 output           spin unit                     : hbar/2
 output         energy unit                     : eV
 output          force unit                     : eV/A
 output       velocity unit                     : A/ps
 output       pressure unit                     : GPa
 output     inv_length unit                     : 1/A
 output      frequency unit                     : cm-1
 output force constant unit                     : eV/A**2
 output         volume unit                     : A**3
 output   IR intensity unit                     : (D/A)**2/amu
 output         dipole unit                     : D
 output         efield unit                     : eV/A/e
 output        entropy unit                     : J/mol/K
 output    efield chi2 unit                     : pm/V
  
 wavefunctions paging                           : none
 random number generator seed                   :  133258412
 data distribution                              : optimal for this architecture
 optimization strategy                          : balance speed and memory

 *********************** Exchange-Correlation Parameters ***********************
  
 using functional                               : RSCAN
 relativistic treatment                         : Koelling-Harmon
 DFT+D: Semi-empirical dispersion correction    : off

 ************************* Pseudopotential Parameters **************************
  
 pseudopotential representation                 : reciprocal space
 <beta|phi> representation                      : reciprocal space
 spin-orbit coupling                            : off

 **************************** Basis Set Parameters *****************************
  
 plane wave basis set cut-off                   :   900.0000   eV
 size of standard grid                          :     2.0000
 size of   fine   gmax                          :    30.7390   1/A
 finite basis set correction                    : none

 **************************** Electronic Parameters ****************************
  
 number of  electrons                           :  563.0    
 net charge of system                           :  0.000    
 net spin   of system                           :  1.000    
 number of  up  spins                           :  282.0    
 number of down spins                           :  281.0    
 treating system as spin-polarized
 number of bands                                :        338

 ********************* Electronic Minimization Parameters **********************
  
 Method: Treating system as metallic with density mixing treatment of electrons,
         and number of  SD  steps               :          1
         and number of  CG  steps               :          4
  
 total energy / atom convergence tol.           : 0.1000E-07   eV
 eigen-energy convergence tolerance             : 0.2234E-08   eV
 max force / atom convergence tol.              : ignored
 convergence tolerance window                   :          3   cycles
 max. number of SCF cycles                      :        100
 number of fixed-spin iterations                :         10
 smearing scheme                                : Gaussian
 smearing width                                 : 0.2000       eV
 Fermi energy convergence tolerance             : 0.2721E-13   eV
 periodic dipole correction                     : NONE

 ************************** Density Mixing Parameters **************************
  
 density-mixing scheme                          : Pulay
 max. length of mixing history                  :         20
 charge density mixing amplitude                : 0.5000    
   spin density mixing amplitude                :  2.000    
 cut-off energy for mixing                      :  900.0       eV

 *********************** Population Analysis Parameters ************************
  
 Population analysis with cutoff                :  3.000       A
 Population analysis output                     : summary and pdos components

 *******************************************************************************
  

                           -------------------------------
                                      Unit Cell
                           -------------------------------
        Real Lattice(A)                      Reciprocal Lattice(1/A)
    11.8016820    -0.0000080    -0.0000080        0.532397442   0.000000361   0.000000361
    -0.0000080    11.8016820    -0.0000080        0.000000361   0.532397442   0.000000361
    -0.0000080    -0.0000080    11.8016820        0.000000361   0.000000361   0.532397442

                       Lattice parameters(A)       Cell Angles
                    a =     11.801682          alpha =   90.000078
                    b =     11.801682          beta  =   90.000078
                    c =     11.801682          gamma =   90.000078

                       Current cell volume =          1643.734705       A**3
                                   density =             2.768402   AMU/A**3
                                           =             4.597040     g/cm^3

                           -------------------------------
                                     Cell Contents
                           -------------------------------
                         Total number of ions in cell =   63
                      Total number of species in cell =    2
                        Max number of any one species =   32

            xxxxxxxxxxxxxxxxxxxxxxxxxxxxxxxxxxxxxxxxxxxxxxxxxxxxxxxxxxxx
            x  Element    Atom        Fractional coordinates of atoms  x
            x            Number           u          v          w      x
            x----------------------------------------------------------x
            x  P            1         0.126362   0.126362   0.374879   x 
            x  P            2         0.374879   0.126362   0.126362   x 
            x  P            3         0.126362   0.374879   0.126362   x 
            x  P            4         0.493794   0.493794   0.493794   x 
            x  P            5         0.124461   0.124461   0.874061   x 
            x  P            6         0.374131   0.126900   0.620515   x 
            x  P            7         0.126900   0.374131   0.620515   x 
            x  P            8         0.374221   0.374221   0.873741   x 
            x  P            9         0.126900   0.620515   0.374131   x 
            x  P           10         0.374131   0.620515   0.126900   x 
            x  P           11         0.124461   0.874061   0.124461   x 
            x  P           12         0.374221   0.873741   0.374221   x 
            x  P           13         0.127347   0.623203   0.872133   x 
            x  P           14         0.392708   0.610730   0.610730   x 
            x  P           15         0.127347   0.872133   0.623203   x 
            x  P           16         0.375532   0.871736   0.871736   x 
            x  P           17         0.620515   0.126900   0.374131   x 
            x  P           18         0.874061   0.124461   0.124461   x 
            x  P           19         0.620515   0.374131   0.126900   x 
            x  P           20         0.873741   0.374221   0.374221   x 
            x  P           21         0.623203   0.127347   0.872133   x 
            x  P           22         0.872133   0.127347   0.623203   x 
            x  P           23         0.610730   0.392708   0.610730   x 
            x  P           24         0.871736   0.375532   0.871736   x 
            x  P           25         0.610730   0.610730   0.392708   x 
            x  P           26         0.872133   0.623203   0.127347   x 
            x  P           27         0.623203   0.872133   0.127347   x 
            x  P           28         0.871736   0.871736   0.375532   x 
            x  P           29         0.624612   0.624612   0.874659   x 
            x  P           30         0.874659   0.624612   0.624612   x 
            x  P           31         0.624612   0.874659   0.624612   x 
            x  P           32         0.874269   0.874269   0.874269   x 
            x  In           1        -0.000777  -0.000777  -0.000777   x 
            x  In           2         0.249081   0.000103   0.249081   x 
            x  In           3         0.000103   0.249081   0.249081   x 
            x  In           4         0.249081   0.249081   0.000103   x 
            x  In           5        -0.000446  -0.000446   0.499683   x 
            x  In           6         0.250043   0.000037   0.748367   x 
            x  In           7         0.000038   0.250043   0.748367   x 
            x  In           8         0.259725   0.259725   0.486830   x 
            x  In           9        -0.000446   0.499683  -0.000446   x 
            x  In          10         0.259725   0.486830   0.259725   x 
            x  In          11         0.000038   0.748367   0.250043   x 
            x  In          12         0.250043   0.748367   0.000037   x 
            x  In          13        -0.001503   0.499325   0.499325   x 
            x  In          14         0.253851   0.498642   0.743592   x 
            x  In          15         0.000844   0.749520   0.749520   x 
            x  In          16         0.253851   0.743592   0.498642   x 
            x  In          17         0.499683  -0.000446  -0.000446   x 
            x  In          18         0.748367   0.000037   0.250043   x 
            x  In          19         0.486830   0.259725   0.259725   x 
            x  In          20         0.748367   0.250043   0.000037   x 
            x  In          21         0.499325  -0.001503   0.499325   x 
            x  In          22         0.749520   0.000844   0.749520   x 
            x  In          23         0.498642   0.253851   0.743592   x 
            x  In          24         0.743592   0.253851   0.498642   x 
            x  In          25         0.499325   0.499325  -0.001503   x 
            x  In          26         0.743592   0.498642   0.253851   x 
            x  In          27         0.498642   0.743592   0.253851   x 
            x  In          28         0.749520   0.749520   0.000844   x 
            x  In          29         0.745806   0.501854   0.745806   x 
            x  In          30         0.501854   0.745806   0.745806   x 
            x  In          31         0.745806   0.745806   0.501854   x 
            xxxxxxxxxxxxxxxxxxxxxxxxxxxxxxxxxxxxxxxxxxxxxxxxxxxxxxxxxxxx


                         No user defined ionic velocities

                           -------------------------------
                                   Details of Species
                           -------------------------------

                               Mass of species in AMU
                                    P   30.9737600
                                    In  114.8180000

                          Electric Quadrupole Moment (Barn)
                                    P    1.0000000 No Isotope Defined
                                    In    0.7700000 Isotope115

                          Files used for pseudopotentials:
                                    P 3|1.8|4|4|5|30:31:32
                                    In 3|2.5|2.5|1.5|7|8|9|50:51:42U2.2U2.2

                           -------------------------------
                              k-Points For BZ Sampling
                           -------------------------------
                       MP grid size for SCF calculation is  4  4  4
                            with an offset of   0.125  0.125  0.125
                       Number of kpoints used =            36

                           -------------------------------
                               Symmetry and Constraints
                           -------------------------------

                      Maximum deviation from symmetry =  0.00000         ANG

                      Number of symmetry operations   =           1
                      Number of ionic constraints     =           3
                      Point group of crystal =     1: C1, 1, 1
                      Space group of crystal =   160: R3m, R 3 -2"

             Set iprint > 1 for details on symmetry rotations/translations

                         Centre of mass is constrained
             Set iprint > 1 for details of linear ionic constraints

                         Number of cell constraints= 0
                         Cell constraints are:  1 2 3 4 5 6

                         External pressure/stress (GPa)
                          0.00000   0.00000   0.00000
                                    0.00000   0.00000
                                              0.00000
 
+---------------- MEMORY AND SCRATCH DISK ESTIMATES PER PROCESS --------------+
|                                                     Memory          Disk    |
| Baseline code, static data and system overhead      368.0 MB         0.0 MB |
| BLAS internal memory storage                          0.0 MB         0.0 MB |
| Model and support data                             4296.9 MB         0.0 MB |
| Electronic energy minimisation requirements        1299.4 MB         0.0 MB |
| Force calculation requirements                      127.4 MB         0.0 MB |
|                                               ----------------------------- |
| Approx. total storage required per process         5964.3 MB         0.0 MB |
|                                                                             |
| Requirements will fluctuate during execution and may exceed these estimates |
+-----------------------------------------------------------------------------+
Calculating approximate eigenstates for fixed initial Hamiltonian
Cut-off for approx. calculation is   89.988 eV
Improving approx. states at cut-off of  450.000 eV
Resetting cut-off to  900.000 eV
Calculating total energy with cut-off of  900.000 eV.
------------------------------------------------------------------------ <-- SCF
SCF loop      Energy           Fermi           Energy gain       Timer   <-- SCF
                               energy          per atom          (sec)   <-- SCF
------------------------------------------------------------------------ <-- SCF
Initial  -6.12878276E+004  0.00000000E+000                       438.26  <-- SCF
      1  -6.10547953E+004  3.18074032E+000  -3.69892505E+000     871.01  <-- SCF
      2  -6.10551778E+004  3.17966990E+000   6.07155171E-003    1184.19  <-- SCF
      3  -6.11186032E+004  3.28745422E+000   1.00675119E+000    1520.71  <-- SCF
      4  -6.11300153E+004  3.33819503E+000   1.81144172E-001    1997.25  <-- SCF
      5  -6.11358692E+004  3.45783582E+000   9.29202274E-002    2341.36  <-- SCF
      6  -6.11248454E+004  3.66027290E+000  -1.74980878E-001    2671.23  <-- SCF
      7  -6.11236065E+004  3.71194320E+000  -1.96649243E-002    3014.04  <-- SCF
      8  -6.11236474E+004  3.73139460E+000   6.48067471E-004    3371.07  <-- SCF
      9  -6.11244076E+004  3.73467603E+000   1.20674430E-002    3715.70  <-- SCF
     10  -6.11247897E+004  3.95687741E+000   6.06527348E-003    4060.39  <-- SCF
     11  -6.11248132E+004  3.96067842E+000   3.72117318E-004    4408.93  <-- SCF
     12  -6.11248237E+004  3.95996142E+000   1.66254975E-004    4759.87  <-- SCF
     13  -6.11248274E+004  3.95926129E+000   5.95829327E-005    5105.31  <-- SCF
     14  -6.11248301E+004  3.95839561E+000   4.23477881E-005    5450.96  <-- SCF
     15  -6.11248308E+004  3.95818381E+000   1.20189747E-005    5813.25  <-- SCF
     16  -6.11248319E+004  3.95756114E+000   1.75036842E-005    6164.12  <-- SCF
     17  -6.11248323E+004  3.95761167E+000   5.05793150E-006    6518.58  <-- SCF
     18  -6.11248325E+004  3.95792695E+000   3.26482132E-006    6855.30  <-- SCF
     19  -6.11248325E+004  3.95800458E+000   3.39101351E-007    7177.28  <-- SCF
     20  -6.11248325E+004  3.95804066E+000   6.73898801E-008    7439.74  <-- SCF
     21  -6.11248325E+004  3.95806278E+000   2.44021310E-008    7695.42  <-- SCF
     22  -6.11248325E+004  3.95807232E+000   3.20494520E-009    7935.14  <-- SCF
     23  -6.11248325E+004  3.95807549E+000   1.72552820E-009    8176.87  <-- SCF
------------------------------------------------------------------------ <-- SCF
 
Integrated Spin Density     =   -0.248343E-03 hbar/2
Integrated |Spin Density|   =    0.824001E-03 hbar/2
 
Final energy, E             =  -61124.69387080     eV
Final free energy (E-TS)    =  -61124.83248600     eV
(energies not corrected for finite basis set)
 
NB est. 0K energy (E-0.5TS)      =  -61124.76317840     eV
 

 ************************** Forces **************************
 *                                                          *
 *               Cartesian components (eV/A)                *
 * -------------------------------------------------------- *
 *                         x            y            z      *
 *                                                          *
 * P               1     -0.14704     -0.14704      0.04686 *
 * P               2      0.04686     -0.14703     -0.14703 *
 * P               3     -0.14704      0.04686     -0.14704 *
 * P               4      0.12291      0.12291      0.12291 *
 * P               5     -0.02550     -0.02551     -0.06169 *
 * P               6     -0.02767      0.04415     -0.00581 *
 * P               7      0.04415     -0.02767     -0.00581 *
 * P               8      0.02826      0.02826     -0.04648 *
 * P               9      0.04414     -0.00581     -0.02767 *
 * P              10     -0.02767     -0.00581      0.04414 *
 * P              11     -0.02550     -0.06168     -0.02551 *
 * P              12      0.02826     -0.04648      0.02826 *
 * P              13      0.05063      0.00954     -0.05866 *
 * P              14     -0.00643      0.12557      0.12557 *
 * P              15      0.05062     -0.05866      0.00954 *
 * P              16      0.00882     -0.01954     -0.01954 *
 * P              17     -0.00581      0.04414     -0.02767 *
 * P              18     -0.06168     -0.02550     -0.02550 *
 * P              19     -0.00581     -0.02767      0.04414 *
 * P              20     -0.04648      0.02826      0.02826 *
 * P              21      0.00954      0.05063     -0.05866 *
 * P              22     -0.05866      0.05063      0.00954 *
 * P              23      0.12558     -0.00643      0.12558 *
 * P              24     -0.01953      0.00882     -0.01954 *
 * P              25      0.12558      0.12558     -0.00643 *
 * P              26     -0.05866      0.00954      0.05063 *
 * P              27      0.00954     -0.05866      0.05063 *
 * P              28     -0.01954     -0.01954      0.00883 *
 * P              29      0.01553      0.01554      0.06903 *
 * P              30      0.06904      0.01554      0.01553 *
 * P              31      0.01554      0.06903      0.01554 *
 * P              32     -0.01283     -0.01283     -0.01283 *
 * In              1      0.02468      0.02469      0.02469 *
 * In              2     -0.01259      0.03101     -0.01259 *
 * In              3      0.03101     -0.01259     -0.01259 *
 * In              4     -0.01259     -0.01259      0.03101 *
 * In              5      0.02005      0.02005     -0.14790 *
 * In              6      0.04843      0.05802     -0.01105 *
 * In              7      0.05801      0.04844     -0.01105 *
 * In              8      0.11507      0.11507     -0.32834 *
 * In              9      0.02006     -0.14790      0.02005 *
 * In             10      0.11507     -0.32834      0.11507 *
 * In             11      0.05801     -0.01106      0.04843 *
 * In             12      0.04843     -0.01106      0.05802 *
 * In             13      0.09518     -0.01068     -0.01068 *
 * In             14     -0.06651     -0.17168      0.05181 *
 * In             15     -0.01942      0.00276      0.00276 *
 * In             16     -0.06651      0.05181     -0.17168 *
 * In             17     -0.14789      0.02005      0.02005 *
 * In             18     -0.01106      0.05802      0.04843 *
 * In             19     -0.32834      0.11507      0.11507 *
 * In             20     -0.01106      0.04843      0.05802 *
 * In             21     -0.01068      0.09518     -0.01068 *
 * In             22      0.00276     -0.01942      0.00276 *
 * In             23     -0.17167     -0.06651      0.05181 *
 * In             24      0.05181     -0.06651     -0.17167 *
 * In             25     -0.01068     -0.01068      0.09518 *
 * In             26      0.05181     -0.17167     -0.06651 *
 * In             27     -0.17167      0.05181     -0.06651 *
 * In             28      0.00276      0.00276     -0.01942 *
 * In             29      0.09570      0.00693      0.09571 *
 * In             30      0.00694      0.09571      0.09571 *
 * In             31      0.09570      0.09571      0.00693 *
 *                                                          *
 ************************************************************

 Pseudo atomic calculation performed for P 3s2 3p3

 Converged in 23 iterations to a total energy of -208.0292 eV

 Pseudo atomic calculation performed for In 4d10 5s2 5p1

 Converged in 42 iterations to a total energy of -1747.4501 eV
Charge spilling parameter for spin component 1 = 0.20%
Charge spilling parameter for spin component 2 = 0.20%

                   Orbital Populations                  
  ---------------------------------------------------------------
     Ion    Atom   Orbital              Up        Down      Spin
  ---------------------------------------------------------------
      P     1      S                    0.872     0.872    -0.000
      P     1      Px                   0.648     0.648     0.000
      P     1      Py                   0.648     0.648     0.000
      P     1      Pz                   0.662     0.662    -0.000
      P     2      S                    0.872     0.872    -0.000
      P     2      Px                   0.662     0.662    -0.000
      P     2      Py                   0.648     0.648     0.000
      P     2      Pz                   0.648     0.648     0.000
      P     3      S                    0.872     0.872    -0.000
      P     3      Px                   0.648     0.648     0.000
      P     3      Py                   0.662     0.662    -0.000
      P     3      Pz                   0.648     0.648     0.000
      P     4      S                    0.923     0.923    -0.000
      P     4      Px                   0.527     0.527     0.000
      P     4      Py                   0.527     0.527     0.000
      P     4      Pz                   0.527     0.527     0.000
      P     5      S                    0.869     0.869     0.000
      P     5      Px                   0.656     0.656     0.000
      P     5      Py                   0.656     0.656     0.000
      P     5      Pz                   0.656     0.656    -0.000
      P     6      S                    0.873     0.873     0.000
      P     6      Px                   0.661     0.661    -0.000
      P     6      Py                   0.645     0.645    -0.000
      P     6      Pz                   0.648     0.648    -0.000
      P     7      S                    0.873     0.873    -0.000
      P     7      Px                   0.645     0.645     0.000
      P     7      Py                   0.661     0.661    -0.000
      P     7      Pz                   0.648     0.648    -0.000
      P     8      S                    0.868     0.868     0.000
      P     8      Px                   0.657     0.657     0.000
      P     8      Py                   0.657     0.657     0.000
      P     8      Pz                   0.654     0.654     0.000
      P     9      S                    0.873     0.873     0.000
      P     9      Px                   0.645     0.645     0.000
      P     9      Py                   0.648     0.648    -0.000
      P     9      Pz                   0.661     0.661    -0.000
      P    10      S                    0.873     0.873     0.000
      P    10      Px                   0.661     0.661    -0.000
      P    10      Py                   0.648     0.648    -0.000
      P    10      Pz                   0.645     0.645    -0.000
      P    11      S                    0.869     0.869     0.000
      P    11      Px                   0.656     0.656    -0.000
      P    11      Py                   0.656     0.656    -0.000
      P    11      Pz                   0.656     0.656     0.000
      P    12      S                    0.868     0.868     0.000
      P    12      Px                   0.657     0.657     0.000
      P    12      Py                   0.654     0.654     0.000
      P    12      Pz                   0.657     0.657     0.000
      P    13      S                    0.872     0.872     0.000
      P    13      Px                   0.651     0.651     0.000
      P    13      Py                   0.658     0.658     0.000
      P    13      Pz                   0.651     0.651     0.000
      P    14      S                    0.872     0.872    -0.000
      P    14      Px                   0.626     0.626    -0.000
      P    14      Py                   0.625     0.625     0.000
      P    14      Pz                   0.625     0.625     0.000
      P    15      S                    0.872     0.872     0.000
      P    15      Px                   0.651     0.651     0.000
      P    15      Py                   0.651     0.651     0.000
      P    15      Pz                   0.658     0.658     0.000
      P    16      S                    0.874     0.874    -0.000
      P    16      Px                   0.659     0.659    -0.000
      P    16      Py                   0.649     0.649     0.000
      P    16      Pz                   0.649     0.649     0.000
      P    17      S                    0.873     0.873     0.000
      P    17      Px                   0.648     0.648    -0.000
      P    17      Py                   0.645     0.645    -0.000
      P    17      Pz                   0.661     0.661    -0.000
      P    18      S                    0.869     0.869     0.000
      P    18      Px                   0.656     0.656     0.000
      P    18      Py                   0.656     0.656    -0.000
      P    18      Pz                   0.656     0.656     0.000
      P    19      S                    0.873     0.873     0.000
      P    19      Px                   0.648     0.648    -0.000
      P    19      Py                   0.661     0.661    -0.000
      P    19      Pz                   0.645     0.645    -0.000
      P    20      S                    0.868     0.868     0.000
      P    20      Px                   0.654     0.654    -0.000
      P    20      Py                   0.657     0.657     0.000
      P    20      Pz                   0.657     0.657     0.000
      P    21      S                    0.872     0.872     0.000
      P    21      Px                   0.658     0.658     0.000
      P    21      Py                   0.651     0.651     0.000
      P    21      Pz                   0.651     0.651     0.000
      P    22      S                    0.872     0.872     0.000
      P    22      Px                   0.651     0.651     0.000
      P    22      Py                   0.651     0.651     0.000
      P    22      Pz                   0.658     0.658     0.000
      P    23      S                    0.872     0.872    -0.000
      P    23      Px                   0.625     0.625     0.000
      P    23      Py                   0.626     0.626    -0.000
      P    23      Pz                   0.625     0.625     0.000
      P    24      S                    0.874     0.874    -0.000
      P    24      Px                   0.649     0.649    -0.000
      P    24      Py                   0.659     0.659     0.000
      P    24      Pz                   0.649     0.649    -0.000
      P    25      S                    0.872     0.872    -0.000
      P    25      Px                   0.625     0.625     0.000
      P    25      Py                   0.625     0.625    -0.000
      P    25      Pz                   0.626     0.626    -0.000
      P    26      S                    0.872     0.872    -0.000
      P    26      Px                   0.651     0.651     0.000
      P    26      Py                   0.658     0.658     0.000
      P    26      Pz                   0.651     0.651     0.000
      P    27      S                    0.872     0.872     0.000
      P    27      Px                   0.658     0.658     0.000
      P    27      Py                   0.651     0.651     0.000
      P    27      Pz                   0.651     0.651     0.000
      P    28      S                    0.874     0.874    -0.000
      P    28      Px                   0.649     0.649     0.000
      P    28      Py                   0.649     0.649     0.000
      P    28      Pz                   0.659     0.659    -0.000
      P    29      S                    0.867     0.867    -0.000
      P    29      Px                   0.657     0.657     0.000
      P    29      Py                   0.657     0.657     0.000
      P    29      Pz                   0.655     0.655     0.000
      P    30      S                    0.867     0.867    -0.000
      P    30      Px                   0.655     0.655    -0.000
      P    30      Py                   0.657     0.657     0.000
      P    30      Pz                   0.657     0.657     0.000
      P    31      S                    0.867     0.867     0.000
      P    31      Px                   0.657     0.657    -0.000
      P    31      Py                   0.655     0.655     0.000
      P    31      Pz                   0.657     0.657     0.000
      P    32      S                    0.868     0.868    -0.000
      P    32      Px                   0.656     0.656    -0.000
      P    32      Py                   0.656     0.656    -0.000
      P    32      Pz                   0.656     0.656     0.000
     In     1      Dzz                  1.000     1.000     0.000
     In     1      Dzy                  0.998     0.999    -0.000
     In     1      Dzx                  0.998     0.999    -0.000
     In     1      Dxx-yy               1.000     1.000    -0.000
     In     1      Dxy                  0.999     0.998     0.000
     In     1      S                    0.701     0.701    -0.000
     In     1      Px                   0.239     0.239    -0.000
     In     1      Py                   0.239     0.239    -0.000
     In     1      Pz                   0.239     0.239    -0.000
     In     1      S                   -0.247    -0.247     0.000
     In     2      Dzz                  1.000     1.000    -0.000
     In     2      Dzy                  0.998     0.998    -0.000
     In     2      Dzx                  0.999     0.999     0.000
     In     2      Dxx-yy               1.000     1.000    -0.000
     In     2      Dxy                  0.998     0.998    -0.000
     In     2      S                    0.709     0.709    -0.000
     In     2      Px                   0.240     0.240     0.000
     In     2      Py                   0.239     0.239     0.000
     In     2      Pz                   0.240     0.240    -0.000
     In     2      S                   -0.247    -0.247    -0.000
     In     3      Dzz                  1.000     1.000    -0.000
     In     3      Dzy                  0.999     0.999    -0.000
     In     3      Dzx                  0.998     0.998    -0.000
     In     3      Dxx-yy               1.000     1.000    -0.000
     In     3      Dxy                  0.998     0.998    -0.000
     In     3      S                    0.709     0.709     0.000
     In     3      Px                   0.239     0.239     0.000
     In     3      Py                   0.240     0.240     0.000
     In     3      Pz                   0.240     0.240     0.000
     In     3      S                   -0.247    -0.247     0.000
     In     4      Dzz                  1.000     1.000    -0.000
     In     4      Dzy                  0.998     0.998    -0.000
     In     4      Dzx                  0.998     0.998    -0.000
     In     4      Dxx-yy               1.000     1.000    -0.000
     In     4      Dxy                  0.999     0.999    -0.000
     In     4      S                    0.709     0.709     0.000
     In     4      Px                   0.240     0.240     0.000
     In     4      Py                   0.240     0.240     0.000
     In     4      Pz                   0.239     0.239     0.000
     In     4      S                   -0.247    -0.247    -0.000
     In     5      Dzz                  1.000     1.000    -0.000
     In     5      Dzy                  0.999     0.999    -0.000
     In     5      Dzx                  0.999     0.999    -0.000
     In     5      Dxx-yy               1.000     1.000     0.000
     In     5      Dxy                  0.999     0.999    -0.000
     In     5      S                    0.709     0.709    -0.000
     In     5      Px                   0.238     0.238     0.000
     In     5      Py                   0.238     0.238     0.000
     In     5      Pz                   0.233     0.233     0.000
     In     5      S                   -0.246    -0.246    -0.000
     In     6      Dzz                  1.000     1.000     0.000
     In     6      Dzy                  0.999     0.999    -0.000
     In     6      Dzx                  0.999     0.999    -0.000
     In     6      Dxx-yy               1.000     1.000     0.000
     In     6      Dxy                  0.999     0.999    -0.000
     In     6      S                    0.711     0.711    -0.000
     In     6      Px                   0.241     0.241    -0.000
     In     6      Py                   0.240     0.240    -0.000
     In     6      Pz                   0.237     0.237     0.000
     In     6      S                   -0.251    -0.251    -0.000
     In     7      Dzz                  1.000     1.000     0.000
     In     7      Dzy                  0.999     0.999    -0.000
     In     7      Dzx                  0.999     0.999    -0.000
     In     7      Dxx-yy               1.000     1.000     0.000
     In     7      Dxy                  0.999     0.999    -0.000
     In     7      S                    0.711     0.711    -0.000
     In     7      Px                   0.240     0.240    -0.000
     In     7      Py                   0.241     0.241    -0.000
     In     7      Pz                   0.237     0.237    -0.000
     In     7      S                   -0.251    -0.251    -0.000
     In     8      Dzz                  1.000     1.000    -0.000
     In     8      Dzy                  0.999     0.999    -0.000
     In     8      Dzx                  0.999     0.999    -0.000
     In     8      Dxx-yy               1.000     1.000     0.000
     In     8      Dxy                  0.999     0.999    -0.000
     In     8      S                    0.729     0.729    -0.000
     In     8      Px                   0.235     0.235    -0.000
     In     8      Py                   0.235     0.235    -0.000
     In     8      Pz                   0.247     0.247    -0.000
     In     8      S                   -0.219    -0.219     0.000
     In     9      Dzz                  1.000     1.000     0.000
     In     9      Dzy                  0.999     0.999    -0.000
     In     9      Dzx                  0.999     0.999    -0.000
     In     9      Dxx-yy               1.000     1.000     0.000
     In     9      Dxy                  0.999     0.999    -0.000
     In     9      S                    0.709     0.709     0.000
     In     9      Px                   0.238     0.238     0.000
     In     9      Py                   0.233     0.233     0.000
     In     9      Pz                   0.238     0.238    -0.000
     In     9      S                   -0.246    -0.246     0.000
     In    10      Dzz                  1.000     1.000     0.000
     In    10      Dzy                  0.999     0.999    -0.000
     In    10      Dzx                  0.999     0.999    -0.000
     In    10      Dxx-yy               1.000     1.000     0.000
     In    10      Dxy                  0.999     0.999    -0.000
     In    10      S                    0.729     0.729    -0.000
     In    10      Px                   0.235     0.235    -0.000
     In    10      Py                   0.247     0.247    -0.000
     In    10      Pz                   0.235     0.235    -0.000
     In    10      S                   -0.219    -0.219     0.000
     In    11      Dzz                  1.000     1.000     0.000
     In    11      Dzy                  0.999     0.999    -0.000
     In    11      Dzx                  0.999     0.999    -0.000
     In    11      Dxx-yy               1.000     1.000    -0.000
     In    11      Dxy                  0.999     0.999    -0.000
     In    11      S                    0.711     0.711    -0.000
     In    11      Px                   0.240     0.240    -0.000
     In    11      Py                   0.237     0.237    -0.000
     In    11      Pz                   0.241     0.241    -0.000
     In    11      S                   -0.251    -0.251     0.000
     In    12      Dzz                  1.000     1.000     0.000
     In    12      Dzy                  0.999     0.999    -0.000
     In    12      Dzx                  0.999     0.999    -0.000
     In    12      Dxx-yy               1.000     1.000     0.000
     In    12      Dxy                  0.999     0.999    -0.000
     In    12      S                    0.711     0.711    -0.000
     In    12      Px                   0.241     0.241     0.000
     In    12      Py                   0.237     0.237    -0.000
     In    12      Pz                   0.240     0.240    -0.000
     In    12      S                   -0.251    -0.251    -0.000
     In    13      Dzz                  1.000     1.000    -0.000
     In    13      Dzy                  0.998     0.999    -0.000
     In    13      Dzx                  0.998     0.998    -0.000
     In    13      Dxx-yy               1.000     1.000    -0.000
     In    13      Dxy                  0.998     0.998    -0.000
     In    13      S                    0.710     0.710    -0.000
     In    13      Px                   0.238     0.238     0.000
     In    13      Py                   0.240     0.240     0.000
     In    13      Pz                   0.240     0.240     0.000
     In    13      S                   -0.250    -0.250     0.000
     In    14      Dzz                  1.000     1.000    -0.000
     In    14      Dzy                  0.999     0.999    -0.000
     In    14      Dzx                  0.999     0.999    -0.000
     In    14      Dxx-yy               1.000     1.000     0.000
     In    14      Dxy                  0.999     0.999    -0.000
     In    14      S                    0.701     0.701     0.000
     In    14      Px                   0.241     0.241     0.000
     In    14      Py                   0.232     0.232     0.000
     In    14      Pz                   0.241     0.241     0.000
     In    14      S                   -0.241    -0.241     0.000
     In    15      Dzz                  1.000     1.000    -0.000
     In    15      Dzy                  0.999     0.999    -0.000
     In    15      Dzx                  0.998     0.998    -0.000
     In    15      Dxx-yy               1.000     1.000    -0.000
     In    15      Dxy                  0.998     0.999    -0.000
     In    15      S                    0.707     0.707    -0.000
     In    15      Px                   0.241     0.241    -0.000
     In    15      Py                   0.239     0.239    -0.000
     In    15      Pz                   0.239     0.239    -0.000
     In    15      S                   -0.248    -0.248     0.000
     In    16      Dzz                  1.000     1.000     0.000
     In    16      Dzy                  0.999     0.999    -0.000
     In    16      Dzx                  0.999     0.999    -0.000
     In    16      Dxx-yy               1.000     1.000    -0.000
     In    16      Dxy                  0.999     0.999    -0.000
     In    16      S                    0.701     0.701     0.000
     In    16      Px                   0.241     0.241     0.000
     In    16      Py                   0.241     0.241     0.000
     In    16      Pz                   0.232     0.232     0.000
     In    16      S                   -0.241    -0.241     0.000
     In    17      Dzz                  1.000     1.000    -0.000
     In    17      Dzy                  0.999     0.999    -0.000
     In    17      Dzx                  0.999     0.999    -0.000
     In    17      Dxx-yy               1.000     1.000     0.000
     In    17      Dxy                  0.999     0.999    -0.000
     In    17      S                    0.709     0.709    -0.000
     In    17      Px                   0.233     0.233     0.000
     In    17      Py                   0.238     0.238     0.000
     In    17      Pz                   0.238     0.238     0.000
     In    17      S                   -0.246    -0.246     0.000
     In    18      Dzz                  1.000     1.000     0.000
     In    18      Dzy                  0.999     0.999     0.000
     In    18      Dzx                  0.999     0.999    -0.000
     In    18      Dxx-yy               1.000     1.000     0.000
     In    18      Dxy                  0.999     0.999     0.000
     In    18      S                    0.711     0.711    -0.000
     In    18      Px                   0.237     0.237    -0.000
     In    18      Py                   0.240     0.240    -0.000
     In    18      Pz                   0.241     0.241    -0.000
     In    18      S                   -0.251    -0.251    -0.000
     In    19      Dzz                  1.000     1.000     0.000
     In    19      Dzy                  0.999     0.999    -0.000
     In    19      Dzx                  0.999     0.999    -0.000
     In    19      Dxx-yy               1.000     1.000     0.000
     In    19      Dxy                  0.999     0.999    -0.000
     In    19      S                    0.729     0.729    -0.000
     In    19      Px                   0.247     0.247    -0.000
     In    19      Py                   0.235     0.235    -0.000
     In    19      Pz                   0.235     0.235    -0.000
     In    19      S                   -0.219    -0.219     0.000
     In    20      Dzz                  1.000     1.000     0.000
     In    20      Dzy                  0.999     0.999    -0.000
     In    20      Dzx                  0.999     0.999     0.000
     In    20      Dxx-yy               1.000     1.000     0.000
     In    20      Dxy                  0.999     0.999    -0.000
     In    20      S                    0.711     0.711    -0.000
     In    20      Px                   0.237     0.237    -0.000
     In    20      Py                   0.241     0.241     0.000
     In    20      Pz                   0.240     0.240    -0.000
     In    20      S                   -0.251    -0.251    -0.000
     In    21      Dzz                  1.000     1.000    -0.000
     In    21      Dzy                  0.998     0.998    -0.000
     In    21      Dzx                  0.998     0.999    -0.000
     In    21      Dxx-yy               1.000     1.000    -0.000
     In    21      Dxy                  0.998     0.998    -0.000
     In    21      S                    0.710     0.710    -0.000
     In    21      Px                   0.240     0.240     0.000
     In    21      Py                   0.238     0.238    -0.000
     In    21      Pz                   0.240     0.240     0.000
     In    21      S                   -0.250    -0.250    -0.000
     In    22      Dzz                  1.000     1.000     0.000
     In    22      Dzy                  0.998     0.998    -0.000
     In    22      Dzx                  0.999     0.999    -0.000
     In    22      Dxx-yy               1.000     1.000    -0.000
     In    22      Dxy                  0.998     0.998    -0.000
     In    22      S                    0.707     0.707    -0.000
     In    22      Px                   0.239     0.239    -0.000
     In    22      Py                   0.241     0.241     0.000
     In    22      Pz                   0.239     0.239    -0.000
     In    22      S                   -0.248    -0.248    -0.000
     In    23      Dzz                  1.000     1.000    -0.000
     In    23      Dzy                  0.999     0.999    -0.000
     In    23      Dzx                  0.999     0.999    -0.000
     In    23      Dxx-yy               1.000     1.000     0.000
     In    23      Dxy                  0.999     0.999    -0.000
     In    23      S                    0.701     0.701     0.000
     In    23      Px                   0.232     0.232     0.000
     In    23      Py                   0.241     0.241     0.000
     In    23      Pz                   0.241     0.241     0.000
     In    23      S                   -0.241    -0.241     0.000
     In    24      Dzz                  1.000     1.000     0.000
     In    24      Dzy                  0.999     0.999    -0.000
     In    24      Dzx                  0.999     0.999    -0.000
     In    24      Dxx-yy               1.000     1.000    -0.000
     In    24      Dxy                  0.999     0.999    -0.000
     In    24      S                    0.701     0.701     0.000
     In    24      Px                   0.241     0.241     0.000
     In    24      Py                   0.241     0.241    -0.000
     In    24      Pz                   0.232     0.232     0.000
     In    24      S                   -0.241    -0.241     0.000
     In    25      Dzz                  1.000     1.000    -0.000
     In    25      Dzy                  0.998     0.998    -0.000
     In    25      Dzx                  0.998     0.998    -0.000
     In    25      Dxx-yy               1.000     1.000    -0.000
     In    25      Dxy                  0.998     0.999    -0.000
     In    25      S                    0.710     0.710    -0.000
     In    25      Px                   0.240     0.240    -0.000
     In    25      Py                   0.240     0.240     0.000
     In    25      Pz                   0.238     0.238    -0.000
     In    25      S                   -0.250    -0.249    -0.000
     In    26      Dzz                  1.000     1.000    -0.000
     In    26      Dzy                  0.999     0.999    -0.000
     In    26      Dzx                  0.999     0.999    -0.000
     In    26      Dxx-yy               1.000     1.000     0.000
     In    26      Dxy                  0.999     0.999    -0.000
     In    26      S                    0.701     0.701     0.000
     In    26      Px                   0.241     0.241     0.000
     In    26      Py                   0.232     0.232     0.000
     In    26      Pz                   0.241     0.241    -0.000
     In    26      S                   -0.241    -0.241     0.000
     In    27      Dzz                  1.000     1.000    -0.000
     In    27      Dzy                  0.999     0.999    -0.000
     In    27      Dzx                  0.999     0.999    -0.000
     In    27      Dxx-yy               1.000     1.000    -0.000
     In    27      Dxy                  0.999     0.999    -0.000
     In    27      S                    0.701     0.701     0.000
     In    27      Px                   0.232     0.232     0.000
     In    27      Py                   0.241     0.241     0.000
     In    27      Pz                   0.241     0.241     0.000
     In    27      S                   -0.241    -0.241     0.000
     In    28      Dzz                  1.000     1.000    -0.000
     In    28      Dzy                  0.998     0.998    -0.000
     In    28      Dzx                  0.998     0.998    -0.000
     In    28      Dxx-yy               1.000     1.000     0.000
     In    28      Dxy                  0.999     0.999    -0.000
     In    28      S                    0.707     0.707    -0.000
     In    28      Px                   0.239     0.239    -0.000
     In    28      Py                   0.239     0.239    -0.000
     In    28      Pz                   0.241     0.241    -0.000
     In    28      S                   -0.248    -0.248    -0.000
     In    29      Dzz                  1.000     1.000    -0.000
     In    29      Dzy                  0.999     0.999     0.000
     In    29      Dzx                  0.998     0.998    -0.000
     In    29      Dxx-yy               1.000     1.000     0.000
     In    29      Dxy                  0.999     0.999     0.000
     In    29      S                    0.704     0.704    -0.000
     In    29      Px                   0.240     0.240     0.000
     In    29      Py                   0.238     0.238     0.000
     In    29      Pz                   0.240     0.240     0.000
     In    29      S                   -0.251    -0.251    -0.000
     In    30      Dzz                  1.000     1.000    -0.000
     In    30      Dzy                  0.998     0.998    -0.000
     In    30      Dzx                  0.999     0.999    -0.000
     In    30      Dxx-yy               1.000     1.000     0.000
     In    30      Dxy                  0.999     0.999     0.000
     In    30      S                    0.704     0.704     0.000
     In    30      Px                   0.238     0.238     0.000
     In    30      Py                   0.240     0.240    -0.000
     In    30      Pz                   0.240     0.240     0.000
     In    30      S                   -0.251    -0.251     0.000
     In    31      Dzz                  1.000     1.000     0.000
     In    31      Dzy                  0.999     0.999     0.000
     In    31      Dzx                  0.999     0.999    -0.000
     In    31      Dxx-yy               1.000     1.000    -0.000
     In    31      Dxy                  0.998     0.998    -0.000
     In    31      S                    0.704     0.704    -0.000
     In    31      Px                   0.240     0.240     0.000
     In    31      Py                   0.240     0.240    -0.000
     In    31      Pz                   0.238     0.238    -0.000
     In    31      S                   -0.251    -0.251     0.000
  ---------------------------------------------------------------
                           Total:     281.500   281.500    -0.000
  ---------------------------------------------------------------

     Atomic Populations (Mulliken)
     -----------------------------
Species          Ion Spin      s       p       d       f      Total   Charge(e)   Spin(hbar/2)
==============================================================================================
  P               1   up:     0.872   1.958   0.000   0.000   2.830    -0.659        0.000
                  1   dn:     0.872   1.958   0.000   0.000   2.830
  P               2   up:     0.872   1.958   0.000   0.000   2.830    -0.659       -0.000
                  2   dn:     0.872   1.958   0.000   0.000   2.830
  P               3   up:     0.872   1.958   0.000   0.000   2.830    -0.659        0.000
                  3   dn:     0.872   1.958   0.000   0.000   2.830
  P               4   up:     0.923   1.581   0.000   0.000   2.504    -0.008        0.000
                  4   dn:     0.923   1.581   0.000   0.000   2.504
  P               5   up:     0.869   1.967   0.000   0.000   2.836    -0.672        0.000
                  5   dn:     0.869   1.967   0.000   0.000   2.836
  P               6   up:     0.873   1.954   0.000   0.000   2.827    -0.653       -0.000
                  6   dn:     0.873   1.954   0.000   0.000   2.827
  P               7   up:     0.873   1.954   0.000   0.000   2.827    -0.653       -0.000
                  7   dn:     0.873   1.954   0.000   0.000   2.827
  P               8   up:     0.868   1.968   0.000   0.000   2.836    -0.672        0.000
                  8   dn:     0.868   1.968   0.000   0.000   2.836
  P               9   up:     0.873   1.954   0.000   0.000   2.827    -0.654       -0.000
                  9   dn:     0.873   1.954   0.000   0.000   2.827
  P              10   up:     0.873   1.954   0.000   0.000   2.827    -0.653       -0.000
                 10   dn:     0.873   1.954   0.000   0.000   2.827
  P              11   up:     0.869   1.967   0.000   0.000   2.836    -0.672        0.000
                 11   dn:     0.869   1.967   0.000   0.000   2.836
  P              12   up:     0.868   1.968   0.000   0.000   2.836    -0.672        0.000
                 12   dn:     0.868   1.968   0.000   0.000   2.836
  P              13   up:     0.872   1.959   0.000   0.000   2.831    -0.662        0.000
                 13   dn:     0.872   1.959   0.000   0.000   2.831
  P              14   up:     0.872   1.877   0.000   0.000   2.749    -0.498       -0.000
                 14   dn:     0.872   1.877   0.000   0.000   2.749
  P              15   up:     0.872   1.959   0.000   0.000   2.831    -0.662        0.000
                 15   dn:     0.872   1.959   0.000   0.000   2.831
  P              16   up:     0.874   1.956   0.000   0.000   2.830    -0.660       -0.000
                 16   dn:     0.874   1.956   0.000   0.000   2.830
  P              17   up:     0.873   1.954   0.000   0.000   2.827    -0.653       -0.000
                 17   dn:     0.873   1.954   0.000   0.000   2.827
  P              18   up:     0.869   1.967   0.000   0.000   2.836    -0.672        0.000
                 18   dn:     0.869   1.967   0.000   0.000   2.836
  P              19   up:     0.873   1.954   0.000   0.000   2.827    -0.653       -0.000
                 19   dn:     0.873   1.954   0.000   0.000   2.827
  P              20   up:     0.868   1.968   0.000   0.000   2.836    -0.672        0.000
                 20   dn:     0.868   1.968   0.000   0.000   2.836
  P              21   up:     0.872   1.959   0.000   0.000   2.831    -0.662        0.000
                 21   dn:     0.872   1.959   0.000   0.000   2.831
  P              22   up:     0.872   1.959   0.000   0.000   2.831    -0.662        0.000
                 22   dn:     0.872   1.959   0.000   0.000   2.831
  P              23   up:     0.872   1.877   0.000   0.000   2.749    -0.498       -0.000
                 23   dn:     0.872   1.877   0.000   0.000   2.749
  P              24   up:     0.874   1.956   0.000   0.000   2.830    -0.660       -0.000
                 24   dn:     0.874   1.956   0.000   0.000   2.830
  P              25   up:     0.872   1.877   0.000   0.000   2.749    -0.498       -0.000
                 25   dn:     0.872   1.877   0.000   0.000   2.749
  P              26   up:     0.872   1.959   0.000   0.000   2.831    -0.662        0.000
                 26   dn:     0.872   1.959   0.000   0.000   2.831
  P              27   up:     0.872   1.959   0.000   0.000   2.831    -0.662        0.000
                 27   dn:     0.872   1.959   0.000   0.000   2.831
  P              28   up:     0.874   1.956   0.000   0.000   2.830    -0.660       -0.000
                 28   dn:     0.874   1.956   0.000   0.000   2.830
  P              29   up:     0.867   1.970   0.000   0.000   2.837    -0.673        0.000
                 29   dn:     0.867   1.970   0.000   0.000   2.837
  P              30   up:     0.867   1.970   0.000   0.000   2.837    -0.673        0.000
                 30   dn:     0.867   1.970   0.000   0.000   2.837
  P              31   up:     0.867   1.970   0.000   0.000   2.837    -0.673        0.000
                 31   dn:     0.867   1.970   0.000   0.000   2.837
  P              32   up:     0.868   1.968   0.000   0.000   2.836    -0.672       -0.000
                 32   dn:     0.868   1.968   0.000   0.000   2.836
  In              1   up:     0.454   0.718   4.995   0.000   6.167     0.666       -0.000
                  1   dn:     0.454   0.718   4.995   0.000   6.167
  In              2   up:     0.462   0.718   4.995   0.000   6.175     0.651       -0.000
                  2   dn:     0.462   0.718   4.995   0.000   6.175
  In              3   up:     0.462   0.718   4.995   0.000   6.175     0.651        0.000
                  3   dn:     0.462   0.718   4.995   0.000   6.175
  In              4   up:     0.462   0.718   4.995   0.000   6.175     0.651       -0.000
                  4   dn:     0.462   0.718   4.995   0.000   6.175
  In              5   up:     0.463   0.709   4.995   0.000   6.167     0.666        0.000
                  5   dn:     0.463   0.709   4.995   0.000   6.167
  In              6   up:     0.461   0.718   4.995   0.000   6.173     0.653       -0.000
                  6   dn:     0.461   0.718   4.995   0.000   6.173
  In              7   up:     0.461   0.718   4.995   0.000   6.173     0.653       -0.000
                  7   dn:     0.461   0.718   4.995   0.000   6.173
  In              8   up:     0.510   0.717   4.996   0.000   6.223     0.553       -0.000
                  8   dn:     0.510   0.717   4.996   0.000   6.223
  In              9   up:     0.463   0.709   4.995   0.000   6.167     0.666        0.000
                  9   dn:     0.463   0.709   4.995   0.000   6.167
  In             10   up:     0.510   0.717   4.996   0.000   6.223     0.553       -0.000
                 10   dn:     0.510   0.717   4.996   0.000   6.223
  In             11   up:     0.461   0.718   4.995   0.000   6.173     0.653       -0.000
                 11   dn:     0.461   0.718   4.995   0.000   6.173
  In             12   up:     0.461   0.718   4.995   0.000   6.173     0.653       -0.000
                 12   dn:     0.461   0.718   4.995   0.000   6.173
  In             13   up:     0.461   0.719   4.995   0.000   6.174     0.652       -0.000
                 13   dn:     0.461   0.719   4.995   0.000   6.174
  In             14   up:     0.461   0.715   4.995   0.000   6.170     0.659        0.000
                 14   dn:     0.461   0.715   4.995   0.000   6.170
  In             15   up:     0.458   0.720   4.995   0.000   6.173     0.654       -0.000
                 15   dn:     0.458   0.720   4.995   0.000   6.173
  In             16   up:     0.461   0.715   4.995   0.000   6.170     0.659        0.000
                 16   dn:     0.461   0.715   4.995   0.000   6.170
  In             17   up:     0.463   0.709   4.995   0.000   6.167     0.666        0.000
                 17   dn:     0.463   0.709   4.995   0.000   6.167
  In             18   up:     0.461   0.718   4.995   0.000   6.173     0.653       -0.000
                 18   dn:     0.461   0.718   4.995   0.000   6.173
  In             19   up:     0.510   0.717   4.996   0.000   6.223     0.553       -0.000
                 19   dn:     0.510   0.717   4.996   0.000   6.223
  In             20   up:     0.461   0.718   4.995   0.000   6.173     0.653       -0.000
                 20   dn:     0.461   0.718   4.995   0.000   6.173
  In             21   up:     0.461   0.719   4.995   0.000   6.174     0.652       -0.000
                 21   dn:     0.461   0.719   4.995   0.000   6.174
  In             22   up:     0.458   0.720   4.995   0.000   6.173     0.654       -0.000
                 22   dn:     0.458   0.720   4.995   0.000   6.173
  In             23   up:     0.461   0.715   4.995   0.000   6.170     0.659        0.000
                 23   dn:     0.461   0.715   4.995   0.000   6.170
  In             24   up:     0.461   0.715   4.995   0.000   6.170     0.659        0.000
                 24   dn:     0.461   0.715   4.995   0.000   6.170
  In             25   up:     0.461   0.719   4.995   0.000   6.174     0.652       -0.000
                 25   dn:     0.461   0.719   4.995   0.000   6.174
  In             26   up:     0.461   0.715   4.995   0.000   6.170     0.659        0.000
                 26   dn:     0.461   0.715   4.995   0.000   6.170
  In             27   up:     0.461   0.715   4.995   0.000   6.170     0.659        0.000
                 27   dn:     0.461   0.715   4.995   0.000   6.170
  In             28   up:     0.458   0.720   4.995   0.000   6.173     0.654       -0.000
                 28   dn:     0.458   0.720   4.995   0.000   6.173
  In             29   up:     0.453   0.718   4.995   0.000   6.165     0.669       -0.000
                 29   dn:     0.453   0.718   4.995   0.000   6.165
  In             30   up:     0.453   0.718   4.995   0.000   6.165     0.669        0.000
                 30   dn:     0.453   0.718   4.995   0.000   6.165
  In             31   up:     0.453   0.718   4.995   0.000   6.165     0.669        0.000
                 31   dn:     0.453   0.718   4.995   0.000   6.165
==============================================================================================

                 Bond                   Population        Spin       Length (A)
================================================================================
              P 4  -- P 23                   0.50         0.00          2.28741
              P 4  -- P 14                   0.50         0.00          2.28741
              P 4  -- P 25                   0.50         0.00          2.28741
              P 30 -- In 31                  0.66         0.00          2.54108
              P 30 -- In 29                  0.66         0.00          2.54108
              P 31 -- In 31                  0.66         0.00          2.54108
              P 29 -- In 29                  0.66         0.00          2.54108
              P 29 -- In 30                  0.66         0.00          2.54108
              P 31 -- In 30                  0.66         0.00          2.54108
              P 31 -- In 21                  0.65         0.00          2.55118
              P 29 -- In 25                  0.65         0.00          2.55118
              P 30 -- In 13                  0.65         0.00          2.55118
              P 19 -- In 26                  0.67         0.00          2.55221
              P 17 -- In 24                  0.67         0.00          2.55221
              P 9  -- In 16                  0.67         0.00          2.55221
              P 7  -- In 14                  0.67        -0.00          2.55221
              P 6  -- In 23                  0.67        -0.00          2.55221
              P 10 -- In 27                  0.67         0.00          2.55221
              P 2  -- In 4                   0.65         0.00          2.55382
              P 2  -- In 2                   0.65         0.00          2.55382
              P 3  -- In 4                   0.65        -0.00          2.55382
              P 3  -- In 3                   0.65         0.00          2.55382
              P 1  -- In 3                   0.65         0.00          2.55382
              P 1  -- In 2                   0.65        -0.00          2.55382
              P 32 -- In 1                   0.65        -0.00          2.55420
              P 19 -- In 25                  0.65        -0.00          2.55440
              P 17 -- In 21                  0.65         0.00          2.55440
              P 9  -- In 13                  0.65        -0.00          2.55440
              P 6  -- In 21                  0.65        -0.00          2.55440
              P 7  -- In 13                  0.65        -0.00          2.55440
              P 10 -- In 25                  0.65        -0.00          2.55440
              P 20 -- In 13                  0.65        -0.00          2.55488
              P 12 -- In 21                  0.65        -0.00          2.55488
              P 8  -- In 25                  0.65        -0.00          2.55488
              P 12 -- In 27                  0.66         0.00          2.55605
              P 12 -- In 16                  0.66         0.00          2.55605
              P 8  -- In 14                  0.66         0.00          2.55605
              P 20 -- In 26                  0.66         0.00          2.55605
              P 20 -- In 24                  0.66         0.00          2.55605
              P 8  -- In 23                  0.66         0.00          2.55605
              P 5  -- In 4                   0.64         0.00          2.55709
              P 18 -- In 3                   0.64         0.00          2.55709
              P 11 -- In 2                   0.64         0.00          2.55709
              P 22 -- In 22                  0.64        -0.00          2.55835
              P 15 -- In 15                  0.64        -0.00          2.55835
              P 13 -- In 15                  0.64        -0.00          2.55835
              P 27 -- In 28                  0.64        -0.00          2.55835
              P 26 -- In 28                  0.64        -0.00          2.55835
              P 21 -- In 22                  0.64        -0.00          2.55835
              P 5  -- In 1                   0.65        -0.00          2.55948
              P 18 -- In 1                   0.65        -0.00          2.55948
              P 11 -- In 1                   0.65        -0.00          2.55948
              P 11 -- In 11                  0.66        -0.00          2.55993
              P 5  -- In 7                   0.66         0.00          2.55993
              P 18 -- In 20                  0.66         0.00          2.55993
              P 18 -- In 18                  0.66        -0.00          2.55993
              P 11 -- In 12                  0.66        -0.00          2.55993
              P 5  -- In 6                   0.66         0.00          2.55993
              P 15 -- In 6                   0.64         0.00          2.56072
              P 13 -- In 12                  0.64         0.00          2.56072
              P 22 -- In 7                   0.64         0.00          2.56072
              P 27 -- In 18                  0.64         0.00          2.56072
              P 21 -- In 20                  0.64         0.00          2.56072
              P 26 -- In 11                  0.64        -0.00          2.56072
              P 29 -- In 28                  0.64        -0.00          2.56199
              P 31 -- In 22                  0.64        -0.00          2.56199
              P 30 -- In 15                  0.64        -0.00          2.56199
              P 32 -- In 22                  0.65         0.00          2.56251
              P 32 -- In 28                  0.65        -0.00          2.56251
              P 32 -- In 15                  0.65        -0.00          2.56251
              P 8  -- In 4                   0.64         0.00          2.56636
              P 20 -- In 3                   0.64         0.00          2.56636
              P 12 -- In 2                   0.64         0.00          2.56636
              P 28 -- In 18                  0.62        -0.00          2.57018
              P 24 -- In 20                  0.62         0.00          2.57018
              P 16 -- In 12                  0.62         0.00          2.57018
              P 16 -- In 6                   0.62        -0.00          2.57018
              P 28 -- In 11                  0.62        -0.00          2.57018
              P 24 -- In 7                   0.62        -0.00          2.57019
              P 24 -- In 29                  0.65        -0.00          2.57682
              P 16 -- In 30                  0.65        -0.00          2.57682
              P 28 -- In 31                  0.65         0.00          2.57682
              P 2  -- In 17                  0.63         0.00          2.57853
              P 1  -- In 5                   0.63         0.00          2.57853
              P 3  -- In 9                   0.63         0.00          2.57853
              P 26 -- In 9                   0.63        -0.00          2.58088
              P 27 -- In 17                  0.63        -0.00          2.58088
              P 21 -- In 17                  0.63        -0.00          2.58088
              P 22 -- In 5                   0.63        -0.00          2.58088
              P 13 -- In 9                   0.63        -0.00          2.58088
              P 15 -- In 5                   0.63        -0.00          2.58088
              P 7  -- In 7                   0.61         0.00          2.58126
              P 6  -- In 6                   0.61         0.00          2.58126
              P 9  -- In 11                  0.61         0.00          2.58126
              P 10 -- In 12                  0.61         0.00          2.58126
              P 19 -- In 20                  0.61         0.00          2.58126
              P 17 -- In 18                  0.61         0.00          2.58126
              P 15 -- In 16                  0.65        -0.00          2.58673
              P 13 -- In 14                  0.65        -0.00          2.58673
              P 27 -- In 27                  0.65        -0.00          2.58673
              P 26 -- In 26                  0.65         0.00          2.58673
              P 22 -- In 24                  0.65        -0.00          2.58673
              P 21 -- In 23                  0.65        -0.00          2.58673
              P 16 -- In 17                  0.60         0.00          2.58800
              P 24 -- In 9                   0.60         0.00          2.58800
              P 28 -- In 5                   0.60         0.00          2.58800
              P 3  -- In 10                  0.60        -0.00          2.58843
              P 2  -- In 19                  0.60        -0.00          2.58843
              P 1  -- In 8                   0.60        -0.00          2.58843
              P 14 -- In 30                  0.59        -0.00          2.59648
              P 23 -- In 29                  0.59        -0.00          2.59648
              P 25 -- In 31                  0.59        -0.00          2.59648
              P 19 -- In 19                  0.61        -0.00          2.60181
              P 17 -- In 19                  0.61        -0.00          2.60181
              P 10 -- In 10                  0.61         0.00          2.60181
              P 7  -- In 8                   0.61         0.00          2.60181
              P 9  -- In 10                  0.61        -0.00          2.60181
              P 6  -- In 8                   0.61        -0.00          2.60181
              P 25 -- In 27                  0.57         0.00          2.62563
              P 25 -- In 26                  0.57         0.00          2.62563
              P 23 -- In 24                  0.57         0.00          2.62563
              P 23 -- In 23                  0.57         0.00          2.62563
              P 14 -- In 16                  0.57         0.00          2.62563
              P 14 -- In 14                  0.57         0.00          2.62563
================================================================================

 Hirshfeld supercell size:           2           2           2
Standard grid dimensions: 240 240 240
Fine grid dimensions:     240 240 240


     Hirshfeld Analysis
     ------------------
Species   Ion     Hirshfeld Charge (e)  Spin (hbar/2)
===================================================
  P        1                -0.24        0.00
  P        2                -0.24        0.00
  P        3                -0.24        0.00
  P        4                 0.05       -0.00
  P        5                -0.24        0.00
  P        6                -0.24       -0.00
  P        7                -0.24       -0.00
  P        8                -0.24        0.00
  P        9                -0.24       -0.00
  P       10                -0.24       -0.00
  P       11                -0.24        0.00
  P       12                -0.24        0.00
  P       13                -0.24       -0.00
  P       14                -0.15       -0.00
  P       15                -0.24       -0.00
  P       16                -0.24       -0.00
  P       17                -0.24       -0.00
  P       18                -0.24        0.00
  P       19                -0.24       -0.00
  P       20                -0.24        0.00
  P       21                -0.24       -0.00
  P       22                -0.24       -0.00
  P       23                -0.15       -0.00
  P       24                -0.24       -0.00
  P       25                -0.15       -0.00
  P       26                -0.24       -0.00
  P       27                -0.24       -0.00
  P       28                -0.24       -0.00
  P       29                -0.24       -0.00
  P       30                -0.24       -0.00
  P       31                -0.24       -0.00
  P       32                -0.24       -0.00
  In       1                 0.24       -0.00
  In       2                 0.23        0.00
  In       3                 0.23        0.00
  In       4                 0.23        0.00
  In       5                 0.24       -0.00
  In       6                 0.23       -0.00
  In       7                 0.23       -0.00
  In       8                 0.17       -0.00
  In       9                 0.24       -0.00
  In      10                 0.17       -0.00
  In      11                 0.23       -0.00
  In      12                 0.23       -0.00
  In      13                 0.23        0.00
  In      14                 0.24        0.00
  In      15                 0.23       -0.00
  In      16                 0.24        0.00
  In      17                 0.24       -0.00
  In      18                 0.23       -0.00
  In      19                 0.17       -0.00
  In      20                 0.23       -0.00
  In      21                 0.23        0.00
  In      22                 0.23       -0.00
  In      23                 0.24        0.00
  In      24                 0.24        0.00
  In      25                 0.23        0.00
  In      26                 0.24        0.00
  In      27                 0.24        0.00
  In      28                 0.23       -0.00
  In      29                 0.23       -0.00
  In      30                 0.23       -0.00
  In      31                 0.23       -0.00
===================================================

 
 A BibTeX formatted list of references used in this run has been written to 
 In_Vacancy_Migration_3->60_Singlepoints_6.bib
 
Initialisation time =     29.56 s
Calculation time    =   8416.18 s
Finalisation time   =    156.40 s
Total time          =   8602.14 s
Peak Memory Use     = 9556460 kB
 
Overall parallel efficiency rating: Terrible (34%)
 
Data was distributed by:-
G-vector (3-way); efficiency rating: Poor (37%)
k-point (36-way); efficiency rating: Good (79%)
