 +-------------------------------------------------+
 |                                                 |
 |      CCC   AA    SSS  TTTTT  EEEEE  PPPP        |
 |     C     A  A  S       T    E      P   P       |
 |     C     AAAA   SS     T    EEE    PPPP        |
 |     C     A  A     S    T    E      P           |
 |      CCC  A  A  SSS     T    EEEEE  P           |
 |                                                 |
 +-------------------------------------------------+
 |                                                 |
 | Welcome to Academic Release CASTEP version 24.1 |
 | Ab Initio Total Energy Program                  |
 |                                                 |
 | Authors:                                        |
 | M. Segall, M. Probert, C. Pickard, P. Hasnip,   |
 | S. Clark, K. Refson, J. R. Yates,               |
 | A. Bartok-Partay, M. Payne                      |
 |                                                 |
 | Contributors:                                   |
 | P. Lindan, P. Haynes, J. White, V. Milman,      |
 | N. Govind, M. Gibson, P. Tulip, V. Cocula,      |
 | B. Montanari, D. Quigley, M. Glover,            |
 | L. Bernasconi, A. Perlov, M. Plummer,           |
 | E. McNellis, J. Meyer, J. Gale, D. Jochym       |
 | J. Aarons, B. Walker, R. Gillen, D. Jones       |
 | T. Green, I. J. Bush, C. J. Armstrong,          |
 | E. J. Higgins, E. L. Brown, M. S. McFly,        |
 | J. Wilkins, B-C. Shih, P. J. P. Byrne,          |
 | R. J. Maurer, J. C. Womack, J. Dziedzic,        |
 | L. LeBlanc, T. K. Stenczel, J. Kermode,         |
 | S. Sturniolo, B. Shi, B. Durham, M. Evans,      |
 | M. J. Smith, A. Tamerus, Z. Hawkhead,           |
 | V. Ravindran, T. Hollins, S. A. Joyce,          |
 | R. T. Strong, A. M. Reilly, S. J. Donaldson     |
 |                                                 |
 | Copyright (c) 2000 - 2023                       |
 |                                                 |
 |     Distributed under license from Cambridge    |
 |     Enterprise for academic use only.           |
 |                                                 |
 | Please cite                                     |
 |                                                 |
 |     "First principles methods using CASTEP"     |
 |                                                 |
 |         Zeitschrift fuer Kristallographie       |
 |           220(5-6) pp. 567-570 (2005)           |
 |                                                 |
 | S. J. Clark, M. D. Segall, C. J. Pickard,       |
 | P. J. Hasnip, M. J. Probert, K. Refson,         |
 | M. C. Payne                                     |
 |                                                 |
 |       in all publications arising from          |
 |              your use of CASTEP                 |
 |                                                 |
 +-------------------------------------------------+
 |                                                 |
 |              http://www.castep.org              |
 |                                                 |
 +-------------------------------------------------+



 Compiled for  GNU 11.2.0 on 04-04-2024 18:39:17
 from code version 6355fd106 Castep241_branch Thu Mar 7 17:56:19 2024 +0000
 Compiler: GNU Fortran 11.2.0; Optimisation: FAST
 Comms   : MPI VERSION : CRAY MPICH version 8.1.23.14 (ANL base 3.4a2)
 MATHLIBS: default (LAPACK version 3.10.1)
 FFT Lib : fftw3 version commercial-fftw-3.3.10-sse2-avx-avx2-avx2_128
 Fundamental constants values: CODATA 2018

 Run started: Tue, 29 Jul 2025 23:07:44 +0100

 Atomic calculation performed for P: 1s2 2s2 2p6 3s2 3p3

 Converged in 47 iterations to an ae energy of -9309.074 eV

   ============================================================                
   | Pseudopotential Report - Date of generation 29-07-2025   |                
   ------------------------------------------------------------                
   | Element: P Ionic charge:  5.00 Level of theory: RSCAN    |                
   | Atomic Solver: Koelling-Harmon                           |                
   |                                                          |                
   |               Reference Electronic Structure             |                
   |         Orbital         Occupation         Energy        |                
   |            3s              2.000           -0.535        |                
   |            3p              3.000           -0.209        |                
   |                                                          |                
   |                 Pseudopotential Definition               |                
   |        Beta     l      e      Rc     scheme   norm       |                
   |          1      0   -0.535   1.807     qc      0         |                
   |          2      0    0.250   1.807     qc      0         |                
   |          3      1   -0.209   1.807     qc      0         |                
   |          4      1    0.250   1.807     qc      0         |                
   |          5      2    0.000   1.807     qc      0         |                
   |          6      2    0.250   1.807     qc      0         |                
   |         loc     3    0.000   1.807     pn      0         |                
   |                                                          |                
   | Augmentation charge Rinner = 1.263                       |                
   | Partial core correction Rc = 1.263                       |                
   ------------------------------------------------------------                
   | "3|1.8|4|4|5|30:31:32"                                   |                
   ------------------------------------------------------------                
   |      Author: Chris J. Pickard, Cambridge University      |                
   ============================================================                
 Warning: otfg_output_psp cannot write out meta-GGA pseudopotentials presently.

 Atomic calculation performed for In:
 1s2 2s2 2p6 3s2 3p6 3d10 4s2 4p6 4d10 5s2 5p1

 Converged in 84 iterations to an ae energy of -160093.328 eV

   ============================================================                
   | Pseudopotential Report - Date of generation 29-07-2025   |                
   ------------------------------------------------------------                
   | Element: In Ionic charge: 13.00 Level of theory: RSCAN   |                
   | Atomic Solver: Koelling-Harmon                           |                
   |                                                          |                
   |               Reference Electronic Structure             |                
   |         Orbital         Occupation         Energy        |                
   |            4d             10.000           -0.711        |                
   |            5s              2.000           -0.313        |                
   |            5p              1.000           -0.095        |                
   |                                                          |                
   |                 Pseudopotential Definition               |                
   |        Beta     l      e      Rc     scheme   norm       |                
   |          1      0   -0.313   2.501     qc      0         |                
   |          2      0    0.250   2.501     qc      0         |                
   |          3      1   -0.095   2.501     qc      0         |                
   |          4      1    0.250   2.501     qc      0         |                
   |          5      2   -0.711   2.207     qc      0         |                
   |          6      2    0.250   2.207     qc      0         |                
   |         loc     3    0.000   2.501     pn      0         |                
   |                                                          |                
   | Augmentation charge Rinner = 1.504                       |                
   | Partial core correction Rc = 1.504                       |                
   ------------------------------------------------------------                
   | "3|2.5|2.5|1.5|7|8|9|50:51:42U2.2U2.2"                   |                
   ------------------------------------------------------------                
   |      Author: Chris J. Pickard, Cambridge University      |                
   ============================================================                
 Warning: otfg_output_psp cannot write out meta-GGA pseudopotentials presently.

 Pseudo atomic calculation performed for P 3s2 3p3

 Converged in 23 iterations to a total energy of -208.0292 eV

 Pseudo atomic calculation performed for In 4d10 5s2 5p1

 Converged in 42 iterations to a total energy of -1747.4501 eV
 Calculation parallelised over 108 processes.
 Data is distributed by G-vector(3-way) and k-point(36-way)
 Each process may use up to 16 threads.

 ************************************ Title ************************************
 

 ***************************** General Parameters ******************************
  
 output verbosity                               : normal  (1)
 write checkpoint data to                       : P_Interstitial_Migration_Dumbbell#_Dumbbell+_Singlepoints_1.check
 type of calculation                            : single point energy
 stress calculation                             : off
 density difference calculation                 : off
 electron localisation func (ELF) calculation   : off
 Hirshfeld analysis                             : on
 polarisation (Berry phase) analysis            : off
 molecular orbital projected DOS                : off
 deltaSCF calculation                           : off
 unlimited duration calculation
 timing information                             : on
 memory usage estimate                          : on
 write extra output files                       : on
 write final potential to formatted file        : off
 write final density to formatted file          : off
 write BibTeX reference list                    : on
 write OTFG pseudopotential files               : on
 write electrostatic potential file             : on
 write bands file                               : on
 checkpoint writing                             : off
  
 output         length unit                     : A
 output           mass unit                     : amu
 output           time unit                     : ps
 output         charge unit                     : e
 output           spin unit                     : hbar/2
 output         energy unit                     : eV
 output          force unit                     : eV/A
 output       velocity unit                     : A/ps
 output       pressure unit                     : GPa
 output     inv_length unit                     : 1/A
 output      frequency unit                     : cm-1
 output force constant unit                     : eV/A**2
 output         volume unit                     : A**3
 output   IR intensity unit                     : (D/A)**2/amu
 output         dipole unit                     : D
 output         efield unit                     : eV/A/e
 output        entropy unit                     : J/mol/K
 output    efield chi2 unit                     : pm/V
  
 wavefunctions paging                           : none
 random number generator seed                   :  230744696
 data distribution                              : optimal for this architecture
 optimization strategy                          : balance speed and memory

 *********************** Exchange-Correlation Parameters ***********************
  
 using functional                               : RSCAN
 relativistic treatment                         : Koelling-Harmon
 DFT+D: Semi-empirical dispersion correction    : off

 ************************* Pseudopotential Parameters **************************
  
 pseudopotential representation                 : reciprocal space
 <beta|phi> representation                      : reciprocal space
 spin-orbit coupling                            : off

 **************************** Basis Set Parameters *****************************
  
 plane wave basis set cut-off                   :   900.0000   eV
 size of standard grid                          :     2.0000
 size of   fine   gmax                          :    30.7390   1/A
 finite basis set correction                    : none

 **************************** Electronic Parameters ****************************
  
 number of  electrons                           :  581.0    
 net charge of system                           :  0.000    
 net spin   of system                           :  1.000    
 number of  up  spins                           :  291.0    
 number of down spins                           :  290.0    
 treating system as spin-polarized
 number of bands                                :        349

 ********************* Electronic Minimization Parameters **********************
  
 Method: Treating system as metallic with density mixing treatment of electrons,
         and number of  SD  steps               :          1
         and number of  CG  steps               :          4
  
 total energy / atom convergence tol.           : 0.1000E-07   eV
 eigen-energy convergence tolerance             : 0.2234E-08   eV
 max force / atom convergence tol.              : ignored
 convergence tolerance window                   :          3   cycles
 max. number of SCF cycles                      :        100
 number of fixed-spin iterations                :         10
 smearing scheme                                : Gaussian
 smearing width                                 : 0.2000       eV
 Fermi energy convergence tolerance             : 0.2721E-13   eV
 periodic dipole correction                     : NONE

 ************************** Density Mixing Parameters **************************
  
 density-mixing scheme                          : Pulay
 max. length of mixing history                  :         20
 charge density mixing amplitude                : 0.5000    
   spin density mixing amplitude                :  2.000    
 cut-off energy for mixing                      :  900.0       eV

 *********************** Population Analysis Parameters ************************
  
 Population analysis with cutoff                :  3.000       A
 Population analysis output                     : summary and pdos components

 *******************************************************************************
  

                           -------------------------------
                                      Unit Cell
                           -------------------------------
        Real Lattice(A)                      Reciprocal Lattice(1/A)
    11.8016820    -0.0000080    -0.0000080        0.532397442   0.000000361   0.000000361
    -0.0000080    11.8016820    -0.0000080        0.000000361   0.532397442   0.000000361
    -0.0000080    -0.0000080    11.8016820        0.000000361   0.000000361   0.532397442

                       Lattice parameters(A)       Cell Angles
                    a =     11.801682          alpha =   90.000078
                    b =     11.801682          beta  =   90.000078
                    c =     11.801682          gamma =   90.000078

                       Current cell volume =          1643.734705       A**3
                                   density =             2.857097   AMU/A**3
                                           =             4.744322     g/cm^3

                           -------------------------------
                                     Cell Contents
                           -------------------------------
                         Total number of ions in cell =   65
                      Total number of species in cell =    2
                        Max number of any one species =   33

            xxxxxxxxxxxxxxxxxxxxxxxxxxxxxxxxxxxxxxxxxxxxxxxxxxxxxxxxxxxx
            x  Element    Atom        Fractional coordinates of atoms  x
            x            Number           u          v          w      x
            x----------------------------------------------------------x
            x  P            1         0.120682   0.115344   0.370275   x 
            x  P            2         0.379767   0.108612   0.108534   x 
            x  P            3         0.120682   0.370353   0.115266   x 
            x  P            4         0.334011   0.425152   0.425074   x 
            x  P            5         0.124388   0.120283   0.871073   x 
            x  P            6         0.373786   0.120324   0.619127   x 
            x  P            7         0.116800   0.370711   0.627050   x 
            x  P            8         0.373938   0.369394   0.869388   x 
            x  P            9         0.116800   0.627128   0.370632   x 
            x  P           10         0.373786   0.619206   0.120246   x 
            x  P           11         0.124388   0.871151   0.120205   x 
            x  P           12         0.373938   0.869466   0.369315   x 
            x  P           13         0.123378   0.619798   0.869342   x 
            x  P           14         0.376341   0.624876   0.624798   x 
            x  P           15         0.123378   0.869421   0.619719   x 
            x  P           16         0.369714   0.867756   0.867678   x 
            x  P           17         0.630344   0.115453   0.371455   x 
            x  P           18         0.875412   0.119483   0.119404   x 
            x  P           19         0.630344   0.371533   0.115375   x 
            x  P           20         0.877323   0.369601   0.369522   x 
            x  P           21         0.624913   0.118413   0.867791   x 
            x  P           22         0.874979   0.118475   0.619954   x 
            x  P           23         0.627591   0.367206   0.621236   x 
            x  P           24         0.871017   0.369733   0.869270   x 
            x  P           25         0.627591   0.621314   0.367128   x 
            x  P           26         0.874979   0.620033   0.118397   x 
            x  P           27         0.624913   0.867869   0.118334   x 
            x  P           28         0.871017   0.869349   0.369655   x 
            x  P           29         0.623009   0.619774   0.870052   x 
            x  P           30         0.872734   0.620679   0.620601   x 
            x  P           31         0.623009   0.870131   0.619696   x 
            x  P           32         0.873688   0.869670   0.869592   x 
            x  P           33         0.335791   0.297053   0.296975   x 
            x  In           1        -0.000316  -0.005857  -0.005935   x 
            x  In           2         0.252181  -0.003023   0.243143   x 
            x  In           3         0.001946   0.244171   0.244093   x 
            x  In           4         0.252181   0.243221  -0.003102   x 
            x  In           5        -0.003397  -0.008730   0.494198   x 
            x  In           6         0.247361  -0.004138   0.743850   x 
            x  In           7        -0.004464   0.243111   0.749094   x 
            x  In           8         0.235936   0.239236   0.504487   x 
            x  In           9        -0.003397   0.494276  -0.008808   x 
            x  In          10         0.235936   0.504566   0.239157   x 
            x  In          11        -0.004464   0.749172   0.243033   x 
            x  In          12         0.247361   0.743928  -0.004217   x 
            x  In          13        -0.001237   0.496481   0.496403   x 
            x  In          14         0.249915   0.496223   0.744339   x 
            x  In          15        -0.001048   0.745057   0.744979   x 
            x  In          16         0.249915   0.744417   0.496145   x 
            x  In          17         0.501768  -0.013931  -0.014009   x 
            x  In          18         0.750990  -0.007182   0.242014   x 
            x  In          19         0.519411   0.227896   0.227817   x 
            x  In          20         0.750990   0.242092  -0.007260   x 
            x  In          21         0.497991  -0.005537   0.493869   x 
            x  In          22         0.749426  -0.005912   0.743167   x 
            x  In          23         0.498667   0.244334   0.744988   x 
            x  In          24         0.753203   0.244987   0.494163   x 
            x  In          25         0.497991   0.493947  -0.005615   x 
            x  In          26         0.753203   0.494242   0.244908   x 
            x  In          27         0.498667   0.745066   0.244255   x 
            x  In          28         0.749426   0.743246  -0.005990   x 
            x  In          29         0.512178   0.504654   0.504575   x 
            x  In          30         0.748686   0.495715   0.745326   x 
            x  In          31         0.498918   0.747652   0.747574   x 
            x  In          32         0.748686   0.745405   0.495637   x 
            xxxxxxxxxxxxxxxxxxxxxxxxxxxxxxxxxxxxxxxxxxxxxxxxxxxxxxxxxxxx


                         No user defined ionic velocities

                           -------------------------------
                                   Details of Species
                           -------------------------------

                               Mass of species in AMU
                                    P   30.9737600
                                    In  114.8180000

                          Electric Quadrupole Moment (Barn)
                                    P    1.0000000 No Isotope Defined
                                    In    0.7700000 Isotope115

                          Files used for pseudopotentials:
                                    P 3|1.8|4|4|5|30:31:32
                                    In 3|2.5|2.5|1.5|7|8|9|50:51:42U2.2U2.2

                           -------------------------------
                              k-Points For BZ Sampling
                           -------------------------------
                       MP grid size for SCF calculation is  4  4  4
                            with an offset of   0.125  0.125  0.125
                       Number of kpoints used =            36

                           -------------------------------
                               Symmetry and Constraints
                           -------------------------------

                      Maximum deviation from symmetry =  0.00000         ANG

                      Number of symmetry operations   =           1
                      Number of ionic constraints     =           3
                      Point group of crystal =     1: C1, 1, 1
                      Space group of crystal =     8: Cm, C -2y

             Set iprint > 1 for details on symmetry rotations/translations

                         Centre of mass is constrained
             Set iprint > 1 for details of linear ionic constraints

                         Number of cell constraints= 0
                         Cell constraints are:  1 2 3 4 5 6

                         External pressure/stress (GPa)
                          0.00000   0.00000   0.00000
                                    0.00000   0.00000
                                              0.00000
 
+---------------- MEMORY AND SCRATCH DISK ESTIMATES PER PROCESS --------------+
|                                                     Memory          Disk    |
| Baseline code, static data and system overhead      368.0 MB         0.0 MB |
| BLAS internal memory storage                          0.0 MB         0.0 MB |
| Model and support data                             4327.0 MB         0.0 MB |
| Electronic energy minimisation requirements        1337.1 MB         0.0 MB |
| Force calculation requirements                      127.4 MB         0.0 MB |
|                                               ----------------------------- |
| Approx. total storage required per process         6032.2 MB         0.0 MB |
|                                                                             |
| Requirements will fluctuate during execution and may exceed these estimates |
+-----------------------------------------------------------------------------+
Calculating approximate eigenstates for fixed initial Hamiltonian
Cut-off for approx. calculation is   89.988 eV
Improving approx. states at cut-off of  450.000 eV
Resetting cut-off to  900.000 eV
Calculating total energy with cut-off of  900.000 eV.
------------------------------------------------------------------------ <-- SCF
SCF loop      Energy           Fermi           Energy gain       Timer   <-- SCF
                               energy          per atom          (sec)   <-- SCF
------------------------------------------------------------------------ <-- SCF
Initial  -6.32544480E+004  0.00000000E+000                       446.75  <-- SCF
      1  -6.30179316E+004  2.90060789E+000  -3.63871340E+000     906.52  <-- SCF
      2  -6.30182158E+004  2.90017696E+000   4.37277000E-003    1228.95  <-- SCF
      3  -6.30841974E+004  3.18444145E+000   1.01510125E+000    1573.33  <-- SCF
      4  -6.30957826E+004  3.26854354E+000   1.78234377E-001    2083.36  <-- SCF
      5  -6.31016732E+004  3.43798072E+000   9.06242277E-002    2431.71  <-- SCF
      6  -6.30903028E+004  3.62684165E+000  -1.74929843E-001    2781.30  <-- SCF
      7  -6.30889688E+004  3.67451061E+000  -2.05219276E-002    3142.81  <-- SCF
      8  -6.30891170E+004  3.71424045E+000   2.27877208E-003    3510.23  <-- SCF
      9  -6.30899419E+004  3.73922763E+000   1.26916242E-002    3875.51  <-- SCF
     10  -6.30902157E+004  3.71795814E+000   4.21169067E-003    4233.81  <-- SCF
     11  -6.30902226E+004  3.71115160E+000   1.06295690E-004    4597.36  <-- SCF
     12  -6.30902253E+004  3.70511311E+000   4.16014646E-005    4951.91  <-- SCF
     13  -6.30902264E+004  3.70458529E+000   1.76954214E-005    5312.80  <-- SCF
     14  -6.30902267E+004  3.70364861E+000   4.14515352E-006    5673.83  <-- SCF
     15  -6.30902268E+004  3.70292172E+000   1.00559587E-006    6036.94  <-- SCF
     16  -6.30902268E+004  3.70285554E+000   2.87737639E-007    6359.44  <-- SCF
     17  -6.30902268E+004  3.70270466E+000   8.05925210E-008    6649.56  <-- SCF
     18  -6.30902268E+004  3.70275280E+000   2.70728870E-008    6903.81  <-- SCF
     19  -6.30902268E+004  3.70279493E+000   9.08102709E-009    7150.50  <-- SCF
     20  -6.30902268E+004  3.70279764E+000   2.68046501E-009    7396.60  <-- SCF
     21  -6.30902268E+004  3.70280048E+000   7.59020880E-010    7645.23  <-- SCF
------------------------------------------------------------------------ <-- SCF
 
Integrated Spin Density     =    0.994959     hbar/2
Integrated |Spin Density|   =     1.21737     hbar/2
 
Final energy, E             =  -63090.22319456     eV
Final free energy (E-TS)    =  -63090.22680883     eV
(energies not corrected for finite basis set)
 
NB est. 0K energy (E-0.5TS)      =  -63090.22500169     eV
 

 ************************** Forces **************************
 *                                                          *
 *               Cartesian components (eV/A)                *
 * -------------------------------------------------------- *
 *                         x            y            z      *
 *                                                          *
 * P               1      0.01833     -0.04103      0.00306 *
 * P               2     -0.01257      0.02776      0.02737 *
 * P               3      0.01836      0.00280     -0.04129 *
 * P               4      0.03691     -0.02853     -0.02828 *
 * P               5     -0.00161      0.01692     -0.01886 *
 * P               6      0.03522      0.00087     -0.00927 *
 * P               7      0.00824     -0.02072      0.01762 *
 * P               8     -0.02990      0.01001      0.00161 *
 * P               9      0.00821      0.01769     -0.02052 *
 * P              10      0.03521     -0.00930      0.00112 *
 * P              11     -0.00160     -0.01913      0.01717 *
 * P              12     -0.02989      0.00146      0.01016 *
 * P              13      0.00235     -0.01613      0.01693 *
 * P              14     -0.01767     -0.02596     -0.02629 *
 * P              15      0.00235      0.01679     -0.01592 *
 * P              16      0.04230     -0.01259     -0.01290 *
 * P              17     -0.01812      0.01909     -0.01910 *
 * P              18      0.02109     -0.01276     -0.01262 *
 * P              19     -0.01809     -0.01933      0.01880 *
 * P              20      0.00112      0.01240      0.01254 *
 * P              21     -0.01937     -0.01630     -0.00767 *
 * P              22      0.01541      0.00679      0.00266 *
 * P              23      0.01384      0.02138     -0.01317 *
 * P              24      0.02239     -0.00379      0.00104 *
 * P              25      0.01381     -0.01340      0.02104 *
 * P              26      0.01543      0.00248      0.00668 *
 * P              27     -0.01938     -0.00749     -0.01637 *
 * P              28      0.02239      0.00095     -0.00359 *
 * P              29     -0.01523      0.02126      0.00986 *
 * P              30      0.01402      0.00905      0.00938 *
 * P              31     -0.01523      0.00959      0.02146 *
 * P              32     -0.00664      0.00105      0.00124 *
 * P              33      0.00694      0.00683      0.00680 *
 * In              1     -0.00238     -0.01007     -0.01013 *
 * In              2      0.01043     -0.02333     -0.00568 *
 * In              3     -0.08285      0.01118      0.01111 *
 * In              4      0.01043     -0.00561     -0.02338 *
 * In              5     -0.02452      0.01037      0.00148 *
 * In              6     -0.02523     -0.03599      0.03783 *
 * In              7     -0.01678      0.02657     -0.01342 *
 * In              8     -0.08081      0.02423      0.05395 *
 * In              9     -0.02452      0.00154      0.01030 *
 * In             10     -0.08080      0.05400      0.02416 *
 * In             11     -0.01678     -0.01335      0.02650 *
 * In             12     -0.02523      0.03788     -0.03605 *
 * In             13     -0.00829     -0.03725     -0.03731 *
 * In             14      0.00686     -0.04184      0.00354 *
 * In             15     -0.00793      0.01278      0.01272 *
 * In             16      0.00686      0.00359     -0.04189 *
 * In             17     -0.02379      0.02911      0.02905 *
 * In             18     -0.01182     -0.00545      0.06233 *
 * In             19      0.03776      0.00456      0.00449 *
 * In             20     -0.01182      0.06240     -0.00551 *
 * In             21      0.05154      0.01106     -0.05220 *
 * In             22      0.02630      0.00262     -0.00647 *
 * In             23      0.03382      0.04006      0.00573 *
 * In             24     -0.01048     -0.04921      0.00940 *
 * In             25      0.05154     -0.05214      0.01101 *
 * In             26     -0.01048      0.00947     -0.04927 *
 * In             27      0.03382      0.00579      0.04000 *
 * In             28      0.02630     -0.00641      0.00255 *
 * In             29      0.02738      0.01690      0.01685 *
 * In             30     -0.01000     -0.04519      0.01199 *
 * In             31      0.01282     -0.00905     -0.00912 *
 * In             32     -0.01000      0.01206     -0.04525 *
 *                                                          *
 ************************************************************

 Pseudo atomic calculation performed for P 3s2 3p3

 Converged in 23 iterations to a total energy of -208.0292 eV

 Pseudo atomic calculation performed for In 4d10 5s2 5p1

 Converged in 42 iterations to a total energy of -1747.4501 eV
Charge spilling parameter for spin component 1 = 0.18%
Charge spilling parameter for spin component 2 = 0.18%

                   Orbital Populations                  
  ---------------------------------------------------------------
     Ion    Atom   Orbital              Up        Down      Spin
  ---------------------------------------------------------------
      P     1      S                    0.873     0.868     0.005
      P     1      Px                   0.659     0.643     0.016
      P     1      Py                   0.652     0.647     0.006
      P     1      Pz                   0.650     0.646     0.004
      P     2      S                    0.867     0.867     0.000
      P     2      Px                   0.646     0.646    -0.000
      P     2      Py                   0.660     0.657     0.003
      P     2      Pz                   0.660     0.657     0.003
      P     3      S                    0.873     0.868     0.005
      P     3      Px                   0.659     0.643     0.016
      P     3      Py                   0.650     0.646     0.004
      P     3      Pz                   0.652     0.647     0.006
      P     4      S                    0.887     0.880     0.007
      P     4      Px                   0.711     0.705     0.006
      P     4      Py                   0.645     0.499     0.146
      P     4      Pz                   0.645     0.499     0.146
      P     5      S                    0.867     0.867     0.000
      P     5      Px                   0.655     0.655     0.000
      P     5      Py                   0.658     0.658     0.000
      P     5      Pz                   0.656     0.656     0.000
      P     6      S                    0.868     0.868    -0.000
      P     6      Px                   0.653     0.653    -0.001
      P     6      Py                   0.658     0.658    -0.000
      P     6      Pz                   0.658     0.658    -0.001
      P     7      S                    0.872     0.867     0.005
      P     7      Px                   0.662     0.646     0.016
      P     7      Py                   0.653     0.645     0.008
      P     7      Pz                   0.658     0.647     0.010
      P     8      S                    0.867     0.867    -0.000
      P     8      Px                   0.658     0.659    -0.000
      P     8      Py                   0.657     0.657    -0.000
      P     8      Pz                   0.655     0.655    -0.000
      P     9      S                    0.872     0.867     0.005
      P     9      Px                   0.662     0.646     0.016
      P     9      Py                   0.658     0.647     0.010
      P     9      Pz                   0.653     0.645     0.008
      P    10      S                    0.868     0.868    -0.000
      P    10      Px                   0.653     0.654    -0.001
      P    10      Py                   0.658     0.658    -0.001
      P    10      Pz                   0.658     0.658    -0.000
      P    11      S                    0.867     0.867     0.000
      P    11      Px                   0.655     0.655     0.000
      P    11      Py                   0.656     0.656     0.000
      P    11      Pz                   0.658     0.658     0.000
      P    12      S                    0.867     0.867    -0.000
      P    12      Px                   0.658     0.659    -0.000
      P    12      Py                   0.655     0.655    -0.000
      P    12      Pz                   0.657     0.657    -0.000
      P    13      S                    0.867     0.867    -0.000
      P    13      Px                   0.656     0.656    -0.000
      P    13      Py                   0.658     0.658    -0.000
      P    13      Pz                   0.656     0.656    -0.000
      P    14      S                    0.866     0.866    -0.000
      P    14      Px                   0.649     0.649    -0.000
      P    14      Py                   0.659     0.659     0.000
      P    14      Pz                   0.659     0.659     0.000
      P    15      S                    0.867     0.867    -0.000
      P    15      Px                   0.656     0.656    -0.000
      P    15      Py                   0.656     0.656    -0.000
      P    15      Pz                   0.658     0.658    -0.000
      P    16      S                    0.864     0.864    -0.000
      P    16      Px                   0.652     0.653    -0.001
      P    16      Py                   0.661     0.662    -0.001
      P    16      Pz                   0.661     0.662    -0.001
      P    17      S                    0.868     0.866     0.002
      P    17      Px                   0.665     0.659     0.006
      P    17      Py                   0.663     0.660     0.003
      P    17      Pz                   0.649     0.646     0.003
      P    18      S                    0.867     0.867    -0.000
      P    18      Px                   0.656     0.656    -0.000
      P    18      Py                   0.657     0.657    -0.000
      P    18      Pz                   0.657     0.657    -0.000
      P    19      S                    0.868     0.866     0.002
      P    19      Px                   0.665     0.659     0.006
      P    19      Py                   0.649     0.646     0.003
      P    19      Pz                   0.663     0.660     0.003
      P    20      S                    0.867     0.867    -0.000
      P    20      Px                   0.657     0.657    -0.000
      P    20      Py                   0.657     0.657    -0.000
      P    20      Pz                   0.657     0.657    -0.000
      P    21      S                    0.867     0.866     0.000
      P    21      Px                   0.657     0.657     0.000
      P    21      Py                   0.655     0.655     0.000
      P    21      Pz                   0.659     0.659     0.000
      P    22      S                    0.866     0.866    -0.000
      P    22      Px                   0.659     0.659    -0.000
      P    22      Py                   0.656     0.656     0.000
      P    22      Pz                   0.656     0.656     0.001
      P    23      S                    0.868     0.867     0.001
      P    23      Px                   0.662     0.658     0.003
      P    23      Py                   0.652     0.651     0.002
      P    23      Pz                   0.660     0.658     0.002
      P    24      S                    0.864     0.864     0.001
      P    24      Px                   0.662     0.659     0.003
      P    24      Py                   0.655     0.653     0.001
      P    24      Pz                   0.663     0.660     0.003
      P    25      S                    0.868     0.867     0.001
      P    25      Px                   0.662     0.658     0.003
      P    25      Py                   0.660     0.658     0.002
      P    25      Pz                   0.652     0.651     0.002
      P    26      S                    0.866     0.866    -0.000
      P    26      Px                   0.659     0.659    -0.000
      P    26      Py                   0.656     0.656     0.001
      P    26      Pz                   0.656     0.656     0.000
      P    27      S                    0.867     0.866     0.000
      P    27      Px                   0.657     0.657     0.000
      P    27      Py                   0.659     0.659     0.000
      P    27      Pz                   0.655     0.655     0.000
      P    28      S                    0.864     0.864     0.001
      P    28      Px                   0.662     0.659     0.003
      P    28      Py                   0.663     0.660     0.003
      P    28      Pz                   0.655     0.653     0.001
      P    29      S                    0.867     0.867     0.000
      P    29      Px                   0.657     0.657     0.000
      P    29      Py                   0.656     0.656     0.000
      P    29      Pz                   0.657     0.657    -0.000
      P    30      S                    0.867     0.867    -0.000
      P    30      Px                   0.656     0.656    -0.000
      P    30      Py                   0.657     0.658    -0.000
      P    30      Pz                   0.657     0.658    -0.000
      P    31      S                    0.867     0.867     0.000
      P    31      Px                   0.657     0.657     0.000
      P    31      Py                   0.657     0.657    -0.000
      P    31      Pz                   0.656     0.656     0.000
      P    32      S                    0.867     0.867    -0.000
      P    32      Px                   0.657     0.657     0.000
      P    32      Py                   0.657     0.657    -0.000
      P    32      Pz                   0.657     0.657    -0.000
      P    33      S                    0.907     0.895     0.012
      P    33      Px                   0.722     0.710     0.012
      P    33      Py                   0.672     0.426     0.246
      P    33      Pz                   0.672     0.426     0.246
     In     1      Dzz                  1.000     1.000     0.000
     In     1      Dzy                  0.998     0.998    -0.000
     In     1      Dzx                  0.998     0.998     0.000
     In     1      Dxx-yy               1.000     1.000    -0.000
     In     1      Dxy                  0.998     0.998    -0.000
     In     1      S                    0.706     0.706    -0.000
     In     1      Px                   0.242     0.242    -0.000
     In     1      Py                   0.241     0.241     0.000
     In     1      Pz                   0.241     0.241     0.000
     In     1      S                   -0.264    -0.264    -0.000
     In     2      Dzz                  1.000     1.000     0.000
     In     2      Dzy                  0.999     0.999    -0.000
     In     2      Dzx                  0.998     0.998     0.000
     In     2      Dxx-yy               1.000     1.000     0.000
     In     2      Dxy                  0.999     0.999     0.000
     In     2      S                    0.704     0.704    -0.001
     In     2      Px                   0.240     0.240    -0.001
     In     2      Py                   0.231     0.231    -0.000
     In     2      Pz                   0.242     0.241     0.001
     In     2      S                   -0.253    -0.255     0.001
     In     3      Dzz                  1.000     1.000     0.000
     In     3      Dzy                  0.998     0.998    -0.000
     In     3      Dzx                  0.999     0.999     0.000
     In     3      Dxx-yy               1.000     1.000     0.000
     In     3      Dxy                  0.999     0.999    -0.000
     In     3      S                    0.705     0.706    -0.001
     In     3      Px                   0.233     0.233    -0.001
     In     3      Py                   0.242     0.241     0.002
     In     3      Pz                   0.242     0.241     0.002
     In     3      S                   -0.253    -0.259     0.006
     In     4      Dzz                  1.000     1.000     0.000
     In     4      Dzy                  0.999     0.999     0.000
     In     4      Dzx                  0.999     0.999     0.000
     In     4      Dxx-yy               1.000     1.000     0.000
     In     4      Dxy                  0.998     0.998     0.000
     In     4      S                    0.704     0.704    -0.001
     In     4      Px                   0.240     0.240    -0.001
     In     4      Py                   0.242     0.241     0.001
     In     4      Pz                   0.231     0.231    -0.000
     In     4      S                   -0.253    -0.255     0.001
     In     5      Dzz                  1.000     1.000     0.000
     In     5      Dzy                  0.998     0.998     0.000
     In     5      Dzx                  0.998     0.998    -0.000
     In     5      Dxx-yy               1.000     1.000     0.000
     In     5      Dxy                  0.998     0.998    -0.000
     In     5      S                    0.717     0.715     0.002
     In     5      Px                   0.241     0.241     0.000
     In     5      Py                   0.243     0.240     0.002
     In     5      Pz                   0.250     0.246     0.005
     In     5      S                   -0.268    -0.269     0.001
     In     6      Dzz                  1.000     1.000    -0.000
     In     6      Dzy                  0.998     0.998    -0.000
     In     6      Dzx                  0.998     0.998    -0.000
     In     6      Dxx-yy               1.000     1.000    -0.000
     In     6      Dxy                  0.998     0.998    -0.000
     In     6      S                    0.707     0.707     0.001
     In     6      Px                   0.240     0.240    -0.000
     In     6      Py                   0.241     0.241     0.000
     In     6      Pz                   0.240     0.240     0.000
     In     6      S                   -0.265    -0.266     0.001
     In     7      Dzz                  1.000     1.000     0.000
     In     7      Dzy                  0.998     0.998     0.000
     In     7      Dzx                  0.998     0.998     0.000
     In     7      Dxx-yy               1.000     1.000    -0.000
     In     7      Dxy                  0.998     0.998     0.000
     In     7      S                    0.715     0.714     0.001
     In     7      Px                   0.241     0.241    -0.000
     In     7      Py                   0.252     0.248     0.004
     In     7      Pz                   0.241     0.241     0.001
     In     7      S                   -0.267    -0.268     0.001
     In     8      Dzz                  0.999     0.999     0.000
     In     8      Dzy                  0.999     0.999     0.000
     In     8      Dzx                  0.999     0.998     0.000
     In     8      Dxx-yy               1.000     0.999     0.000
     In     8      Dxy                  0.999     0.998     0.001
     In     8      S                    0.689     0.701    -0.012
     In     8      Px                   0.233     0.239    -0.006
     In     8      Py                   0.241     0.241     0.000
     In     8      Pz                   0.226     0.236    -0.009
     In     8      S                   -0.267    -0.262    -0.004
     In     9      Dzz                  1.000     1.000    -0.000
     In     9      Dzy                  0.998     0.998     0.000
     In     9      Dzx                  0.998     0.998    -0.000
     In     9      Dxx-yy               1.000     1.000     0.000
     In     9      Dxy                  0.998     0.998    -0.000
     In     9      S                    0.717     0.715     0.002
     In     9      Px                   0.241     0.241     0.000
     In     9      Py                   0.250     0.246     0.005
     In     9      Pz                   0.243     0.240     0.002
     In     9      S                   -0.268    -0.269     0.001
     In    10      Dzz                  0.999     0.999     0.000
     In    10      Dzy                  0.999     0.999     0.000
     In    10      Dzx                  0.999     0.998     0.001
     In    10      Dxx-yy               1.000     0.999     0.000
     In    10      Dxy                  0.999     0.998     0.000
     In    10      S                    0.689     0.701    -0.012
     In    10      Px                   0.233     0.239    -0.006
     In    10      Py                   0.226     0.236    -0.009
     In    10      Pz                   0.241     0.241     0.000
     In    10      S                   -0.267    -0.262    -0.004
     In    11      Dzz                  1.000     1.000    -0.000
     In    11      Dzy                  0.998     0.998     0.000
     In    11      Dzx                  0.998     0.998     0.000
     In    11      Dxx-yy               1.000     1.000     0.000
     In    11      Dxy                  0.998     0.998    -0.000
     In    11      S                    0.715     0.714     0.001
     In    11      Px                   0.241     0.241    -0.000
     In    11      Py                   0.241     0.241     0.001
     In    11      Pz                   0.252     0.248     0.004
     In    11      S                   -0.267    -0.268     0.001
     In    12      Dzz                  1.000     1.000    -0.000
     In    12      Dzy                  0.998     0.998    -0.000
     In    12      Dzx                  0.998     0.998    -0.000
     In    12      Dxx-yy               1.000     1.000    -0.000
     In    12      Dxy                  0.998     0.998    -0.000
     In    12      S                    0.707     0.707     0.001
     In    12      Px                   0.240     0.240    -0.000
     In    12      Py                   0.240     0.240     0.000
     In    12      Pz                   0.241     0.241     0.000
     In    12      S                   -0.265    -0.266     0.001
     In    13      Dzz                  1.000     1.000     0.000
     In    13      Dzy                  0.998     0.998     0.000
     In    13      Dzx                  0.999     0.999     0.000
     In    13      Dxx-yy               1.000     1.000     0.000
     In    13      Dxy                  0.999     0.999     0.000
     In    13      S                    0.705     0.707    -0.001
     In    13      Px                   0.233     0.234    -0.001
     In    13      Py                   0.243     0.241     0.001
     In    13      Pz                   0.243     0.241     0.001
     In    13      S                   -0.254    -0.256     0.002
     In    14      Dzz                  1.000     1.000    -0.000
     In    14      Dzy                  0.999     0.999     0.000
     In    14      Dzx                  0.999     0.999     0.000
     In    14      Dxx-yy               1.000     1.000     0.000
     In    14      Dxy                  0.998     0.998     0.000
     In    14      S                    0.705     0.706    -0.001
     In    14      Px                   0.241     0.242    -0.000
     In    14      Py                   0.241     0.240     0.001
     In    14      Pz                   0.234     0.234    -0.000
     In    14      S                   -0.256    -0.256    -0.000
     In    15      Dzz                  1.000     1.000     0.000
     In    15      Dzy                  0.998     0.998     0.000
     In    15      Dzx                  0.998     0.998     0.000
     In    15      Dxx-yy               1.000     1.000    -0.000
     In    15      Dxy                  0.998     0.998     0.000
     In    15      S                    0.706     0.707    -0.000
     In    15      Px                   0.242     0.242     0.000
     In    15      Py                   0.241     0.241    -0.000
     In    15      Pz                   0.241     0.241    -0.000
     In    15      S                   -0.265    -0.266     0.000
     In    16      Dzz                  1.000     1.000     0.000
     In    16      Dzy                  0.999     0.999     0.000
     In    16      Dzx                  0.998     0.998     0.000
     In    16      Dxx-yy               1.000     1.000     0.000
     In    16      Dxy                  0.999     0.999    -0.000
     In    16      S                    0.705     0.706    -0.001
     In    16      Px                   0.241     0.242    -0.000
     In    16      Py                   0.234     0.234    -0.000
     In    16      Pz                   0.241     0.240     0.001
     In    16      S                   -0.256    -0.256    -0.000
     In    17      Dzz                  0.999     0.999     0.000
     In    17      Dzy                  0.998     0.998     0.000
     In    17      Dzx                  0.998     0.998     0.000
     In    17      Dxx-yy               1.000     0.999     0.000
     In    17      Dxy                  0.998     0.998     0.000
     In    17      S                    0.710     0.711    -0.001
     In    17      Px                   0.250     0.252    -0.001
     In    17      Py                   0.241     0.241    -0.000
     In    17      Pz                   0.241     0.241    -0.000
     In    17      S                   -0.266    -0.267     0.000
     In    18      Dzz                  1.000     1.000     0.000
     In    18      Dzy                  0.998     0.998     0.000
     In    18      Dzx                  0.998     0.998     0.000
     In    18      Dxx-yy               1.000     1.000    -0.000
     In    18      Dxy                  0.998     0.998    -0.000
     In    18      S                    0.708     0.707     0.001
     In    18      Px                   0.238     0.238    -0.000
     In    18      Py                   0.240     0.239     0.000
     In    18      Pz                   0.247     0.246     0.002
     In    18      S                   -0.265    -0.265    -0.000
     In    19      Dzz                  0.999     0.999     0.000
     In    19      Dzy                  0.998     0.998     0.000
     In    19      Dzx                  0.998     0.998     0.000
     In    19      Dxx-yy               0.999     0.999     0.000
     In    19      Dxy                  0.998     0.998     0.000
     In    19      S                    0.708     0.718    -0.010
     In    19      Px                   0.245     0.253    -0.009
     In    19      Py                   0.247     0.248    -0.001
     In    19      Pz                   0.247     0.248    -0.001
     In    19      S                   -0.261    -0.261     0.000
     In    20      Dzz                  1.000     1.000    -0.000
     In    20      Dzy                  0.998     0.998     0.000
     In    20      Dzx                  0.998     0.998    -0.000
     In    20      Dxx-yy               1.000     1.000     0.000
     In    20      Dxy                  0.998     0.998     0.000
     In    20      S                    0.708     0.707     0.001
     In    20      Px                   0.238     0.238    -0.000
     In    20      Py                   0.247     0.246     0.002
     In    20      Pz                   0.240     0.239     0.000
     In    20      S                   -0.265    -0.265    -0.000
     In    21      Dzz                  1.000     1.000    -0.000
     In    21      Dzy                  0.999     0.999    -0.000
     In    21      Dzx                  0.998     0.998     0.000
     In    21      Dxx-yy               1.000     1.000    -0.000
     In    21      Dxy                  0.998     0.998    -0.000
     In    21      S                    0.712     0.712    -0.000
     In    21      Px                   0.240     0.240    -0.000
     In    21      Py                   0.239     0.239     0.000
     In    21      Pz                   0.240     0.239     0.000
     In    21      S                   -0.267    -0.271     0.004
     In    22      Dzz                  1.000     1.000    -0.000
     In    22      Dzy                  0.998     0.998     0.000
     In    22      Dzx                  0.998     0.998     0.000
     In    22      Dxx-yy               1.000     1.000     0.000
     In    22      Dxy                  0.998     0.998     0.000
     In    22      S                    0.707     0.707     0.000
     In    22      Px                   0.241     0.241    -0.000
     In    22      Py                   0.242     0.242     0.000
     In    22      Pz                   0.242     0.242    -0.000
     In    22      S                   -0.265    -0.266     0.001
     In    23      Dzz                  1.000     1.000     0.000
     In    23      Dzy                  0.999     0.999    -0.000
     In    23      Dzx                  0.998     0.998    -0.000
     In    23      Dxx-yy               1.000     1.000     0.000
     In    23      Dxy                  0.998     0.998     0.000
     In    23      S                    0.711     0.711    -0.000
     In    23      Px                   0.240     0.240    -0.000
     In    23      Py                   0.240     0.240     0.000
     In    23      Pz                   0.239     0.239    -0.000
     In    23      S                   -0.267    -0.270     0.002
     In    24      Dzz                  1.000     1.000     0.000
     In    24      Dzy                  0.998     0.998    -0.000
     In    24      Dzx                  0.998     0.998     0.000
     In    24      Dxx-yy               1.000     1.000     0.000
     In    24      Dxy                  0.998     0.998     0.000
     In    24      S                    0.712     0.713    -0.000
     In    24      Px                   0.239     0.239    -0.000
     In    24      Py                   0.242     0.240     0.001
     In    24      Pz                   0.241     0.240     0.001
     In    24      S                   -0.270    -0.270     0.000
     In    25      Dzz                  1.000     1.000    -0.000
     In    25      Dzy                  0.999     0.999    -0.000
     In    25      Dzx                  0.998     0.998     0.000
     In    25      Dxx-yy               1.000     1.000    -0.000
     In    25      Dxy                  0.998     0.998     0.000
     In    25      S                    0.712     0.712    -0.000
     In    25      Px                   0.240     0.240    -0.000
     In    25      Py                   0.240     0.239     0.000
     In    25      Pz                   0.239     0.239     0.000
     In    25      S                   -0.267    -0.271     0.004
     In    26      Dzz                  1.000     1.000     0.000
     In    26      Dzy                  0.998     0.998    -0.000
     In    26      Dzx                  0.998     0.998     0.000
     In    26      Dxx-yy               1.000     1.000    -0.000
     In    26      Dxy                  0.998     0.998    -0.000
     In    26      S                    0.712     0.713    -0.000
     In    26      Px                   0.239     0.239    -0.000
     In    26      Py                   0.241     0.240     0.001
     In    26      Pz                   0.242     0.240     0.001
     In    26      S                   -0.270    -0.270     0.000
     In    27      Dzz                  1.000     1.000    -0.000
     In    27      Dzy                  0.999     0.999    -0.000
     In    27      Dzx                  0.998     0.998     0.000
     In    27      Dxx-yy               1.000     1.000     0.000
     In    27      Dxy                  0.998     0.998    -0.000
     In    27      S                    0.711     0.711    -0.000
     In    27      Px                   0.240     0.240    -0.000
     In    27      Py                   0.239     0.239    -0.000
     In    27      Pz                   0.240     0.240     0.000
     In    27      S                   -0.267    -0.270     0.002
     In    28      Dzz                  1.000     1.000    -0.000
     In    28      Dzy                  0.998     0.998     0.000
     In    28      Dzx                  0.998     0.998     0.000
     In    28      Dxx-yy               1.000     1.000    -0.000
     In    28      Dxy                  0.998     0.998     0.000
     In    28      S                    0.707     0.707     0.000
     In    28      Px                   0.241     0.241    -0.000
     In    28      Py                   0.242     0.242    -0.000
     In    28      Pz                   0.242     0.242     0.000
     In    28      S                   -0.265    -0.266     0.001
     In    29      Dzz                  0.999     0.999     0.000
     In    29      Dzy                  0.998     0.998     0.000
     In    29      Dzx                  0.998     0.998     0.000
     In    29      Dxx-yy               0.999     0.999     0.000
     In    29      Dxy                  0.998     0.998     0.000
     In    29      S                    0.717     0.724    -0.007
     In    29      Px                   0.245     0.250    -0.005
     In    29      Py                   0.244     0.243     0.001
     In    29      Pz                   0.244     0.243     0.001
     In    29      S                   -0.269    -0.272     0.003
     In    30      Dzz                  1.000     1.000    -0.000
     In    30      Dzy                  0.998     0.998     0.000
     In    30      Dzx                  0.998     0.998    -0.000
     In    30      Dxx-yy               1.000     1.000     0.000
     In    30      Dxy                  0.998     0.998     0.000
     In    30      S                    0.708     0.708     0.000
     In    30      Px                   0.239     0.239    -0.000
     In    30      Py                   0.245     0.244     0.001
     In    30      Pz                   0.240     0.240     0.000
     In    30      S                   -0.265    -0.264    -0.001
     In    31      Dzz                  0.999     0.999     0.000
     In    31      Dzy                  0.998     0.998     0.000
     In    31      Dzx                  0.998     0.998    -0.000
     In    31      Dxx-yy               1.000     1.000    -0.000
     In    31      Dxy                  0.998     0.998     0.000
     In    31      S                    0.709     0.710    -0.001
     In    31      Px                   0.249     0.250    -0.001
     In    31      Py                   0.241     0.241    -0.000
     In    31      Pz                   0.241     0.241    -0.000
     In    31      S                   -0.266    -0.266     0.000
     In    32      Dzz                  1.000     1.000    -0.000
     In    32      Dzy                  0.998     0.998     0.000
     In    32      Dzx                  0.998     0.998     0.000
     In    32      Dxx-yy               1.000     1.000    -0.000
     In    32      Dxy                  0.998     0.998    -0.000
     In    32      S                    0.708     0.708     0.000
     In    32      Px                   0.239     0.239    -0.000
     In    32      Py                   0.240     0.240     0.000
     In    32      Pz                   0.245     0.244     0.001
     In    32      S                   -0.265    -0.264    -0.001
  ---------------------------------------------------------------
                           Total:     290.997   290.002     0.995
  ---------------------------------------------------------------

     Atomic Populations (Mulliken)
     -----------------------------
Species          Ion Spin      s       p       d       f      Total   Charge(e)   Spin(hbar/2)
==============================================================================================
  P               1   up:     0.873   1.961   0.000   0.000   2.834    -0.636        0.031
                  1   dn:     0.868   1.935   0.000   0.000   2.803
  P               2   up:     0.867   1.965   0.000   0.000   2.832    -0.659        0.006
                  2   dn:     0.867   1.960   0.000   0.000   2.827
  P               3   up:     0.873   1.961   0.000   0.000   2.834    -0.636        0.031
                  3   dn:     0.868   1.935   0.000   0.000   2.803
  P               4   up:     0.887   2.001   0.000   0.000   2.887    -0.470        0.304
                  4   dn:     0.880   1.703   0.000   0.000   2.583
  P               5   up:     0.867   1.970   0.000   0.000   2.837    -0.674        0.001
                  5   dn:     0.867   1.969   0.000   0.000   2.837
  P               6   up:     0.868   1.968   0.000   0.000   2.836    -0.674       -0.002
                  6   dn:     0.868   1.970   0.000   0.000   2.838
  P               7   up:     0.872   1.972   0.000   0.000   2.844    -0.648        0.039
                  7   dn:     0.867   1.938   0.000   0.000   2.805
  P               8   up:     0.867   1.971   0.000   0.000   2.838    -0.676       -0.000
                  8   dn:     0.867   1.971   0.000   0.000   2.838
  P               9   up:     0.872   1.972   0.000   0.000   2.844    -0.648        0.039
                  9   dn:     0.867   1.938   0.000   0.000   2.805
  P              10   up:     0.868   1.968   0.000   0.000   2.836    -0.674       -0.002
                 10   dn:     0.868   1.970   0.000   0.000   2.838
  P              11   up:     0.867   1.970   0.000   0.000   2.837    -0.674        0.000
                 11   dn:     0.867   1.969   0.000   0.000   2.837
  P              12   up:     0.867   1.971   0.000   0.000   2.838    -0.676       -0.000
                 12   dn:     0.867   1.971   0.000   0.000   2.838
  P              13   up:     0.867   1.970   0.000   0.000   2.837    -0.674       -0.001
                 13   dn:     0.867   1.970   0.000   0.000   2.837
  P              14   up:     0.866   1.967   0.000   0.000   2.833    -0.666        0.000
                 14   dn:     0.866   1.967   0.000   0.000   2.833
  P              15   up:     0.867   1.970   0.000   0.000   2.837    -0.674       -0.001
                 15   dn:     0.867   1.970   0.000   0.000   2.837
  P              16   up:     0.864   1.975   0.000   0.000   2.839    -0.680       -0.002
                 16   dn:     0.864   1.977   0.000   0.000   2.841
  P              17   up:     0.868   1.976   0.000   0.000   2.844    -0.675        0.013
                 17   dn:     0.866   1.965   0.000   0.000   2.831
  P              18   up:     0.867   1.970   0.000   0.000   2.837    -0.674       -0.001
                 18   dn:     0.867   1.971   0.000   0.000   2.837
  P              19   up:     0.868   1.976   0.000   0.000   2.844    -0.675        0.013
                 19   dn:     0.866   1.965   0.000   0.000   2.831
  P              20   up:     0.867   1.971   0.000   0.000   2.838    -0.677       -0.001
                 20   dn:     0.867   1.972   0.000   0.000   2.839
  P              21   up:     0.867   1.971   0.000   0.000   2.838    -0.675        0.000
                 21   dn:     0.866   1.971   0.000   0.000   2.837
  P              22   up:     0.866   1.972   0.000   0.000   2.838    -0.675        0.001
                 22   dn:     0.866   1.971   0.000   0.000   2.837
  P              23   up:     0.868   1.974   0.000   0.000   2.842    -0.675        0.008
                 23   dn:     0.867   1.967   0.000   0.000   2.833
  P              24   up:     0.864   1.979   0.000   0.000   2.843    -0.679        0.007
                 24   dn:     0.864   1.972   0.000   0.000   2.836
  P              25   up:     0.868   1.974   0.000   0.000   2.842    -0.675        0.008
                 25   dn:     0.867   1.967   0.000   0.000   2.833
  P              26   up:     0.866   1.972   0.000   0.000   2.838    -0.675        0.001
                 26   dn:     0.866   1.971   0.000   0.000   2.837
  P              27   up:     0.867   1.971   0.000   0.000   2.838    -0.675        0.000
                 27   dn:     0.866   1.971   0.000   0.000   2.837
  P              28   up:     0.864   1.979   0.000   0.000   2.843    -0.679        0.007
                 28   dn:     0.864   1.972   0.000   0.000   2.836
  P              29   up:     0.867   1.971   0.000   0.000   2.838    -0.675        0.000
                 29   dn:     0.867   1.971   0.000   0.000   2.838
  P              30   up:     0.867   1.971   0.000   0.000   2.837    -0.675       -0.001
                 30   dn:     0.867   1.971   0.000   0.000   2.838
  P              31   up:     0.867   1.971   0.000   0.000   2.838    -0.675        0.000
                 31   dn:     0.867   1.971   0.000   0.000   2.838
  P              32   up:     0.867   1.970   0.000   0.000   2.837    -0.675       -0.000
                 32   dn:     0.867   1.970   0.000   0.000   2.837
  P              33   up:     0.907   2.067   0.000   0.000   2.974    -0.431        0.516
                 33   dn:     0.895   1.562   0.000   0.000   2.458
  In              1   up:     0.441   0.724   4.995   0.000   6.160     0.680       -0.000
                  1   dn:     0.442   0.724   4.995   0.000   6.160
  In              2   up:     0.450   0.712   4.995   0.000   6.157     0.686        0.001
                  2   dn:     0.450   0.712   4.995   0.000   6.157
  In              3   up:     0.452   0.718   4.995   0.000   6.164     0.679        0.008
                  3   dn:     0.447   0.714   4.995   0.000   6.156
  In              4   up:     0.450   0.712   4.995   0.000   6.157     0.686        0.001
                  4   dn:     0.450   0.712   4.995   0.000   6.157
  In              5   up:     0.449   0.734   4.994   0.000   6.177     0.656        0.010
                  5   dn:     0.446   0.727   4.994   0.000   6.167
  In              6   up:     0.442   0.721   4.995   0.000   6.158     0.686        0.001
                  6   dn:     0.440   0.721   4.995   0.000   6.156
  In              7   up:     0.447   0.734   4.994   0.000   6.175     0.656        0.006
                  7   dn:     0.446   0.729   4.994   0.000   6.169
  In              8   up:     0.423   0.701   4.995   0.000   6.119     0.733       -0.030
                  8   dn:     0.439   0.716   4.994   0.000   6.149
  In              9   up:     0.449   0.734   4.994   0.000   6.177     0.656        0.010
                  9   dn:     0.446   0.727   4.994   0.000   6.167
  In             10   up:     0.423   0.701   4.995   0.000   6.119     0.733       -0.030
                 10   dn:     0.439   0.716   4.994   0.000   6.149
  In             11   up:     0.447   0.734   4.994   0.000   6.175     0.655        0.006
                 11   dn:     0.446   0.729   4.994   0.000   6.169
  In             12   up:     0.442   0.721   4.995   0.000   6.158     0.686        0.001
                 12   dn:     0.440   0.721   4.995   0.000   6.156
  In             13   up:     0.451   0.718   4.995   0.000   6.164     0.674        0.003
                 13   dn:     0.450   0.717   4.995   0.000   6.162
  In             14   up:     0.449   0.716   4.995   0.000   6.160     0.679       -0.001
                 14   dn:     0.450   0.716   4.995   0.000   6.161
  In             15   up:     0.441   0.723   4.995   0.000   6.159     0.682        0.000
                 15   dn:     0.441   0.723   4.995   0.000   6.159
  In             16   up:     0.449   0.716   4.995   0.000   6.160     0.679       -0.001
                 16   dn:     0.450   0.716   4.995   0.000   6.161
  In             17   up:     0.444   0.732   4.994   0.000   6.169     0.659       -0.002
                 17   dn:     0.444   0.733   4.994   0.000   6.171
  In             18   up:     0.443   0.725   4.994   0.000   6.162     0.677        0.002
                 18   dn:     0.442   0.724   4.994   0.000   6.160
  In             19   up:     0.446   0.739   4.993   0.000   6.179     0.622       -0.020
                 19   dn:     0.457   0.750   4.992   0.000   6.199
  In             20   up:     0.443   0.725   4.994   0.000   6.162     0.677        0.002
                 20   dn:     0.442   0.724   4.994   0.000   6.160
  In             21   up:     0.444   0.719   4.995   0.000   6.158     0.688        0.004
                 21   dn:     0.441   0.718   4.995   0.000   6.154
  In             22   up:     0.442   0.725   4.994   0.000   6.161     0.678        0.001
                 22   dn:     0.441   0.725   4.994   0.000   6.160
  In             23   up:     0.444   0.719   4.995   0.000   6.158     0.686        0.002
                 23   dn:     0.442   0.719   4.995   0.000   6.156
  In             24   up:     0.442   0.722   4.995   0.000   6.158     0.685        0.002
                 24   dn:     0.442   0.720   4.995   0.000   6.157
  In             25   up:     0.444   0.719   4.995   0.000   6.158     0.688        0.004
                 25   dn:     0.441   0.718   4.995   0.000   6.154
  In             26   up:     0.442   0.722   4.995   0.000   6.158     0.685        0.002
                 26   dn:     0.442   0.720   4.995   0.000   6.157
  In             27   up:     0.444   0.719   4.995   0.000   6.158     0.686        0.002
                 27   dn:     0.442   0.719   4.995   0.000   6.156
  In             28   up:     0.442   0.725   4.994   0.000   6.161     0.678        0.001
                 28   dn:     0.441   0.725   4.994   0.000   6.160
  In             29   up:     0.448   0.733   4.994   0.000   6.174     0.644       -0.008
                 29   dn:     0.452   0.737   4.993   0.000   6.182
  In             30   up:     0.443   0.724   4.994   0.000   6.161     0.679        0.001
                 30   dn:     0.443   0.722   4.994   0.000   6.160
  In             31   up:     0.443   0.731   4.994   0.000   6.168     0.663       -0.001
                 31   dn:     0.444   0.732   4.994   0.000   6.169
  In             32   up:     0.443   0.724   4.994   0.000   6.161     0.679        0.001
                 32   dn:     0.443   0.722   4.994   0.000   6.160
==============================================================================================

                 Bond                   Population        Spin       Length (A)
================================================================================
              P 4  -- P 33                   0.36        -0.12          2.13808
              P 33 -- In 19                  0.78        -0.01          2.45527
              P 4  -- In 29                  0.71        -0.00          2.48633
              P 2  -- In 17                  0.69         0.00          2.50124
              P 14 -- In 31                  0.69         0.00          2.50832
              P 16 -- In 17                  0.66         0.00          2.51556
              P 16 -- In 31                  0.66         0.00          2.51859
              P 19 -- In 19                  0.65        -0.00          2.51963
              P 17 -- In 19                  0.65        -0.00          2.51963
              P 23 -- In 29                  0.65        -0.00          2.52627
              P 25 -- In 29                  0.65        -0.00          2.52627
              P 7  -- In 7                   0.64        -0.00          2.52791
              P 9  -- In 11                  0.64        -0.00          2.52791
              P 28 -- In 18                  0.67         0.00          2.52962
              P 24 -- In 20                  0.67         0.00          2.52962
              P 28 -- In 11                  0.65        -0.00          2.53064
              P 24 -- In 7                   0.65        -0.00          2.53064
              P 3  -- In 9                   0.63        -0.00          2.53523
              P 1  -- In 5                   0.63        -0.00          2.53523
              P 28 -- In 5                   0.66        -0.00          2.53523
              P 24 -- In 9                   0.66        -0.00          2.53523
              P 24 -- In 30                  0.67         0.00          2.53663
              P 28 -- In 32                  0.67         0.00          2.53663
              P 10 -- In 10                  0.68         0.00          2.53901
              P 6  -- In 8                   0.68         0.00          2.53901
              P 17 -- In 18                  0.64        -0.00          2.54078
              P 19 -- In 20                  0.64        -0.00          2.54078
              P 26 -- In 28                  0.67        -0.00          2.54263
              P 22 -- In 22                  0.67         0.00          2.54263
              P 20 -- In 24                  0.66         0.00          2.54407
              P 20 -- In 26                  0.66         0.00          2.54407
              P 21 -- In 22                  0.66        -0.00          2.54466
              P 27 -- In 28                  0.66        -0.00          2.54466
              P 9  -- In 10                  0.63        -0.01          2.54492
              P 7  -- In 8                   0.63        -0.01          2.54492
              P 8  -- In 25                  0.66         0.00          2.54563
              P 12 -- In 21                  0.66         0.00          2.54563
              P 18 -- In 18                  0.67         0.00          2.54648
              P 18 -- In 20                  0.67         0.00          2.54648
              P 30 -- In 32                  0.67         0.00          2.54655
              P 30 -- In 30                  0.67         0.00          2.54655
              P 11 -- In 11                  0.66         0.00          2.54677
              P 5  -- In 7                   0.66         0.00          2.54677
              P 23 -- In 30                  0.64        -0.00          2.54701
              P 25 -- In 32                  0.64        -0.00          2.54701
              P 5  -- In 1                   0.67        -0.00          2.54735
              P 11 -- In 1                   0.67        -0.00          2.54735
              P 31 -- In 22                  0.67        -0.00          2.54741
              P 29 -- In 28                  0.67        -0.00          2.54741
              P 3  -- In 3                   0.67        -0.00          2.54808
              P 1  -- In 3                   0.67        -0.00          2.54808
              P 13 -- In 15                  0.67         0.00          2.54868
              P 15 -- In 15                  0.67         0.00          2.54868
              P 3  -- In 10                  0.63        -0.00          2.54888
              P 1  -- In 8                   0.63        -0.00          2.54888
              P 27 -- In 17                  0.65        -0.00          2.54902
              P 21 -- In 17                  0.65        -0.00          2.54902
              P 22 -- In 24                  0.66         0.00          2.54922
              P 26 -- In 26                  0.66         0.00          2.54922
              P 12 -- In 27                  0.66         0.00          2.54962
              P 8  -- In 23                  0.66         0.00          2.54962
              P 15 -- In 5                   0.66        -0.00          2.54968
              P 13 -- In 9                   0.66        -0.00          2.54968
              P 16 -- In 12                  0.67         0.00          2.55077
              P 16 -- In 6                   0.67         0.00          2.55077
              P 30 -- In 13                  0.66         0.00          2.55128
              P 31 -- In 32                  0.66        -0.00          2.55152
              P 29 -- In 30                  0.66        -0.00          2.55152
              P 26 -- In 11                  0.65        -0.00          2.55160
              P 22 -- In 7                   0.65        -0.00          2.55160
              P 32 -- In 15                  0.66         0.00          2.55167
              P 31 -- In 31                  0.65         0.00          2.55179
              P 29 -- In 31                  0.65         0.00          2.55179
              P 15 -- In 6                   0.67         0.00          2.55220
              P 13 -- In 12                  0.67         0.00          2.55220
              P 26 -- In 9                   0.65        -0.00          2.55277
              P 22 -- In 5                   0.65        -0.00          2.55277
              P 11 -- In 12                  0.67         0.00          2.55279
              P 5  -- In 6                   0.67         0.00          2.55279
              P 27 -- In 18                  0.66         0.00          2.55321
              P 21 -- In 20                  0.66         0.00          2.55321
              P 6  -- In 23                  0.66         0.00          2.55348
              P 10 -- In 27                  0.66         0.00          2.55348
              P 9  -- In 13                  0.66        -0.00          2.55363
              P 7  -- In 13                  0.66        -0.00          2.55363
              P 14 -- In 14                  0.67         0.00          2.55378
              P 14 -- In 16                  0.67         0.00          2.55378
              P 2  -- In 4                   0.67         0.00          2.55473
              P 2  -- In 2                   0.67         0.00          2.55473
              P 32 -- In 1                   0.66         0.00          2.55478
              P 25 -- In 26                  0.65        -0.00          2.55482
              P 23 -- In 24                  0.65        -0.00          2.55482
              P 18 -- In 1                   0.65         0.00          2.55483
              P 30 -- In 15                  0.66         0.00          2.55502
              P 21 -- In 23                  0.67         0.00          2.55513
              P 27 -- In 27                  0.67         0.00          2.55513
              P 32 -- In 22                  0.66         0.00          2.55593
              P 32 -- In 28                  0.66         0.00          2.55593
              P 13 -- In 14                  0.65         0.00          2.55604
              P 15 -- In 16                  0.65         0.00          2.55604
              P 31 -- In 21                  0.66        -0.00          2.55638
              P 29 -- In 25                  0.66        -0.00          2.55638
              P 19 -- In 26                  0.65        -0.00          2.55665
              P 17 -- In 24                  0.65        -0.00          2.55665
              P 20 -- In 13                  0.64         0.00          2.55705
              P 6  -- In 21                  0.66         0.00          2.55738
              P 10 -- In 25                  0.66         0.00          2.55738
              P 20 -- In 3                   0.65         0.00          2.55843
              P 8  -- In 4                   0.65         0.00          2.55863
              P 12 -- In 2                   0.65         0.00          2.55863
              P 6  -- In 6                   0.64         0.00          2.55936
              P 10 -- In 12                  0.64         0.00          2.55936
              P 25 -- In 27                  0.67         0.00          2.55946
              P 23 -- In 23                  0.67         0.00          2.55946
              P 12 -- In 16                  0.65        -0.00          2.56139
              P 8  -- In 14                  0.65        -0.00          2.56139
              P 18 -- In 3                   0.66         0.00          2.56141
              P 17 -- In 21                  0.67         0.00          2.56239
              P 19 -- In 25                  0.67         0.00          2.56239
              P 7  -- In 14                  0.65         0.01          2.56478
              P 9  -- In 16                  0.65         0.01          2.56478
              P 5  -- In 4                   0.64        -0.00          2.56606
              P 11 -- In 2                   0.64        -0.00          2.56606
              P 14 -- In 29                  0.55         0.00          2.56829
              P 1  -- In 2                   0.64         0.01          2.57118
              P 3  -- In 4                   0.64         0.01          2.57118
              P 2  -- In 19                  0.51         0.00          2.58447
              P 4  -- In 10                  0.40         0.01          2.65184
              P 4  -- In 8                   0.40         0.01          2.65184
              P 33 -- In 10                  0.19        -0.01          2.80213
              P 33 -- In 8                   0.19        -0.01          2.80213
================================================================================

 Hirshfeld supercell size:           2           2           2
Standard grid dimensions: 240 240 240
Fine grid dimensions:     240 240 240


     Hirshfeld Analysis
     ------------------
Species   Ion     Hirshfeld Charge (e)  Spin (hbar/2)
===================================================
  P        1                -0.23        0.03
  P        2                -0.24        0.01
  P        3                -0.23        0.03
  P        4                -0.17        0.24
  P        5                -0.24        0.00
  P        6                -0.23        0.00
  P        7                -0.23        0.03
  P        8                -0.24        0.00
  P        9                -0.23        0.03
  P       10                -0.23        0.00
  P       11                -0.24        0.00
  P       12                -0.24        0.00
  P       13                -0.24        0.00
  P       14                -0.24        0.00
  P       15                -0.24        0.00
  P       16                -0.24       -0.00
  P       17                -0.24        0.01
  P       18                -0.24        0.00
  P       19                -0.24        0.01
  P       20                -0.24       -0.00
  P       21                -0.24        0.00
  P       22                -0.24        0.00
  P       23                -0.24        0.01
  P       24                -0.24        0.01
  P       25                -0.24        0.01
  P       26                -0.24        0.00
  P       27                -0.24        0.00
  P       28                -0.24        0.01
  P       29                -0.24        0.00
  P       30                -0.24        0.00
  P       31                -0.24        0.00
  P       32                -0.24        0.00
  P       33                -0.16        0.38
  In       1                 0.24        0.00
  In       2                 0.25        0.01
  In       3                 0.24        0.00
  In       4                 0.25        0.01
  In       5                 0.23        0.01
  In       6                 0.24       -0.00
  In       7                 0.23        0.01
  In       8                 0.26        0.04
  In       9                 0.23        0.01
  In      10                 0.26        0.04
  In      11                 0.23        0.01
  In      12                 0.24       -0.00
  In      13                 0.24        0.00
  In      14                 0.25        0.00
  In      15                 0.24        0.00
  In      16                 0.25        0.00
  In      17                 0.23       -0.00
  In      18                 0.24        0.00
  In      19                 0.21        0.03
  In      20                 0.24        0.00
  In      21                 0.25        0.00
  In      22                 0.23        0.00
  In      23                 0.25        0.00
  In      24                 0.24        0.00
  In      25                 0.25        0.00
  In      26                 0.24        0.00
  In      27                 0.25        0.00
  In      28                 0.23        0.00
  In      29                 0.22        0.02
  In      30                 0.24        0.00
  In      31                 0.23       -0.00
  In      32                 0.24        0.00
===================================================

 
 A BibTeX formatted list of references used in this run has been written to 
 P_Interstitial_Migration_Dumbbell#_Dumbbell+_Singlepoints_1.bib
 
Initialisation time =     30.80 s
Calculation time    =   7892.92 s
Finalisation time   =    165.44 s
Total time          =   8089.16 s
Peak Memory Use     = 9654148 kB
 
Overall parallel efficiency rating: Terrible (34%)
 
Data was distributed by:-
G-vector (3-way); efficiency rating: Poor (38%)
k-point (36-way); efficiency rating: Good (78%)
