 +-------------------------------------------------+
 |                                                 |
 |      CCC   AA    SSS  TTTTT  EEEEE  PPPP        |
 |     C     A  A  S       T    E      P   P       |
 |     C     AAAA   SS     T    EEE    PPPP        |
 |     C     A  A     S    T    E      P           |
 |      CCC  A  A  SSS     T    EEEEE  P           |
 |                                                 |
 +-------------------------------------------------+
 |                                                 |
 | Welcome to Academic Release CASTEP version 24.1 |
 | Ab Initio Total Energy Program                  |
 |                                                 |
 | Authors:                                        |
 | M. Segall, M. Probert, C. Pickard, P. Hasnip,   |
 | S. Clark, K. Refson, J. R. Yates,               |
 | A. Bartok-Partay, M. Payne                      |
 |                                                 |
 | Contributors:                                   |
 | P. Lindan, P. Haynes, J. White, V. Milman,      |
 | N. Govind, M. Gibson, P. Tulip, V. Cocula,      |
 | B. Montanari, D. Quigley, M. Glover,            |
 | L. Bernasconi, A. Perlov, M. Plummer,           |
 | E. McNellis, J. Meyer, J. Gale, D. Jochym       |
 | J. Aarons, B. Walker, R. Gillen, D. Jones       |
 | T. Green, I. J. Bush, C. J. Armstrong,          |
 | E. J. Higgins, E. L. Brown, M. S. McFly,        |
 | J. Wilkins, B-C. Shih, P. J. P. Byrne,          |
 | R. J. Maurer, J. C. Womack, J. Dziedzic,        |
 | L. LeBlanc, T. K. Stenczel, J. Kermode,         |
 | S. Sturniolo, B. Shi, B. Durham, M. Evans,      |
 | M. J. Smith, A. Tamerus, Z. Hawkhead,           |
 | V. Ravindran, T. Hollins, S. A. Joyce,          |
 | R. T. Strong, A. M. Reilly, S. J. Donaldson     |
 |                                                 |
 | Copyright (c) 2000 - 2023                       |
 |                                                 |
 |     Distributed under license from Cambridge    |
 |     Enterprise for academic use only.           |
 |                                                 |
 | Please cite                                     |
 |                                                 |
 |     "First principles methods using CASTEP"     |
 |                                                 |
 |         Zeitschrift fuer Kristallographie       |
 |           220(5-6) pp. 567-570 (2005)           |
 |                                                 |
 | S. J. Clark, M. D. Segall, C. J. Pickard,       |
 | P. J. Hasnip, M. J. Probert, K. Refson,         |
 | M. C. Payne                                     |
 |                                                 |
 |       in all publications arising from          |
 |              your use of CASTEP                 |
 |                                                 |
 +-------------------------------------------------+
 |                                                 |
 |              http://www.castep.org              |
 |                                                 |
 +-------------------------------------------------+



 Compiled for  GNU 11.2.0 on 04-04-2024 18:39:17
 from code version 6355fd106 Castep241_branch Thu Mar 7 17:56:19 2024 +0000
 Compiler: GNU Fortran 11.2.0; Optimisation: FAST
 Comms   : MPI VERSION : CRAY MPICH version 8.1.23.14 (ANL base 3.4a2)
 MATHLIBS: default (LAPACK version 3.10.1)
 FFT Lib : fftw3 version commercial-fftw-3.3.10-sse2-avx-avx2-avx2_128
 Fundamental constants values: CODATA 2018

 Run started: Sun, 27 Apr 2025 06:13:34 +0100

 Atomic calculation performed for P: 1s2 2s2 2p6 3s2 3p3

 Converged in 47 iterations to an ae energy of -9309.074 eV

   ============================================================                
   | Pseudopotential Report - Date of generation 27-04-2025   |                
   ------------------------------------------------------------                
   | Element: P Ionic charge:  5.00 Level of theory: RSCAN    |                
   | Atomic Solver: Koelling-Harmon                           |                
   |                                                          |                
   |               Reference Electronic Structure             |                
   |         Orbital         Occupation         Energy        |                
   |            3s              2.000           -0.535        |                
   |            3p              3.000           -0.209        |                
   |                                                          |                
   |                 Pseudopotential Definition               |                
   |        Beta     l      e      Rc     scheme   norm       |                
   |          1      0   -0.535   1.807     qc      0         |                
   |          2      0    0.250   1.807     qc      0         |                
   |          3      1   -0.209   1.807     qc      0         |                
   |          4      1    0.250   1.807     qc      0         |                
   |          5      2    0.000   1.807     qc      0         |                
   |          6      2    0.250   1.807     qc      0         |                
   |         loc     3    0.000   1.807     pn      0         |                
   |                                                          |                
   | Augmentation charge Rinner = 1.263                       |                
   | Partial core correction Rc = 1.263                       |                
   ------------------------------------------------------------                
   | "3|1.8|4|4|5|30:31:32"                                   |                
   ------------------------------------------------------------                
   |      Author: Chris J. Pickard, Cambridge University      |                
   ============================================================                
 Warning: otfg_output_psp cannot write out meta-GGA pseudopotentials presently.

 Atomic calculation performed for In:
 1s2 2s2 2p6 3s2 3p6 3d10 4s2 4p6 4d10 5s2 5p1

 Converged in 84 iterations to an ae energy of -160093.328 eV

   ============================================================                
   | Pseudopotential Report - Date of generation 27-04-2025   |                
   ------------------------------------------------------------                
   | Element: In Ionic charge: 13.00 Level of theory: RSCAN   |                
   | Atomic Solver: Koelling-Harmon                           |                
   |                                                          |                
   |               Reference Electronic Structure             |                
   |         Orbital         Occupation         Energy        |                
   |            4d             10.000           -0.711        |                
   |            5s              2.000           -0.313        |                
   |            5p              1.000           -0.095        |                
   |                                                          |                
   |                 Pseudopotential Definition               |                
   |        Beta     l      e      Rc     scheme   norm       |                
   |          1      0   -0.313   2.501     qc      0         |                
   |          2      0    0.250   2.501     qc      0         |                
   |          3      1   -0.095   2.501     qc      0         |                
   |          4      1    0.250   2.501     qc      0         |                
   |          5      2   -0.711   2.207     qc      0         |                
   |          6      2    0.250   2.207     qc      0         |                
   |         loc     3    0.000   2.501     pn      0         |                
   |                                                          |                
   | Augmentation charge Rinner = 1.504                       |                
   | Partial core correction Rc = 1.504                       |                
   ------------------------------------------------------------                
   | "3|2.5|2.5|1.5|7|8|9|50:51:42U2.2U2.2"                   |                
   ------------------------------------------------------------                
   |      Author: Chris J. Pickard, Cambridge University      |                
   ============================================================                
 Warning: otfg_output_psp cannot write out meta-GGA pseudopotentials presently.

 Pseudo atomic calculation performed for P 3s2 3p3

 Converged in 23 iterations to a total energy of -208.0292 eV

 Pseudo atomic calculation performed for In 4d10 5s2 5p1

 Converged in 42 iterations to a total energy of -1747.4501 eV
 Calculation parallelised over 108 processes.
 Data is distributed by G-vector(3-way) and k-point(36-way)
 Each process may use up to 16 threads.

 ************************************ Title ************************************
 

 ***************************** General Parameters ******************************
  
 output verbosity                               : normal  (1)
 write checkpoint data to                       : P_Interstitial_Migration_Dumbbell#_Dumbbell+_Singlepoints_1.check
 type of calculation                            : single point energy
 stress calculation                             : off
 density difference calculation                 : off
 electron localisation func (ELF) calculation   : off
 Hirshfeld analysis                             : on
 polarisation (Berry phase) analysis            : off
 molecular orbital projected DOS                : off
 deltaSCF calculation                           : off
 unlimited duration calculation
 timing information                             : on
 memory usage estimate                          : on
 write extra output files                       : on
 write final potential to formatted file        : off
 write final density to formatted file          : off
 write BibTeX reference list                    : on
 write OTFG pseudopotential files               : on
 write electrostatic potential file             : on
 write bands file                               : on
 checkpoint writing                             : off
  
 output         length unit                     : A
 output           mass unit                     : amu
 output           time unit                     : ps
 output         charge unit                     : e
 output           spin unit                     : hbar/2
 output         energy unit                     : eV
 output          force unit                     : eV/A
 output       velocity unit                     : A/ps
 output       pressure unit                     : GPa
 output     inv_length unit                     : 1/A
 output      frequency unit                     : cm-1
 output force constant unit                     : eV/A**2
 output         volume unit                     : A**3
 output   IR intensity unit                     : (D/A)**2/amu
 output         dipole unit                     : D
 output         efield unit                     : eV/A/e
 output        entropy unit                     : J/mol/K
 output    efield chi2 unit                     : pm/V
  
 wavefunctions paging                           : none
 random number generator seed                   :   61334127
 data distribution                              : optimal for this architecture
 optimization strategy                          : balance speed and memory

 *********************** Exchange-Correlation Parameters ***********************
  
 using functional                               : RSCAN
 relativistic treatment                         : Koelling-Harmon
 DFT+D: Semi-empirical dispersion correction    : off

 ************************* Pseudopotential Parameters **************************
  
 pseudopotential representation                 : reciprocal space
 <beta|phi> representation                      : reciprocal space
 spin-orbit coupling                            : off

 **************************** Basis Set Parameters *****************************
  
 plane wave basis set cut-off                   :   900.0000   eV
 size of standard grid                          :     2.0000
 size of   fine   gmax                          :    30.7390   1/A
 finite basis set correction                    : none

 **************************** Electronic Parameters ****************************
  
 number of  electrons                           :  581.0    
 net charge of system                           :  0.000    
 net spin   of system                           :  1.000    
 number of  up  spins                           :  291.0    
 number of down spins                           :  290.0    
 treating system as spin-polarized
 number of bands                                :        349

 ********************* Electronic Minimization Parameters **********************
  
 Method: Treating system as metallic with density mixing treatment of electrons,
         and number of  SD  steps               :          1
         and number of  CG  steps               :          4
  
 total energy / atom convergence tol.           : 0.1000E-07   eV
 eigen-energy convergence tolerance             : 0.2234E-08   eV
 max force / atom convergence tol.              : ignored
 convergence tolerance window                   :          3   cycles
 max. number of SCF cycles                      :        100
 number of fixed-spin iterations                :         10
 smearing scheme                                : Gaussian
 smearing width                                 : 0.2000       eV
 Fermi energy convergence tolerance             : 0.2721E-13   eV
 periodic dipole correction                     : NONE

 ************************** Density Mixing Parameters **************************
  
 density-mixing scheme                          : Pulay
 max. length of mixing history                  :         20
 charge density mixing amplitude                : 0.5000    
   spin density mixing amplitude                :  2.000    
 cut-off energy for mixing                      :  900.0       eV

 *********************** Population Analysis Parameters ************************
  
 Population analysis with cutoff                :  3.000       A
 Population analysis output                     : summary and pdos components

 *******************************************************************************
  

                           -------------------------------
                                      Unit Cell
                           -------------------------------
        Real Lattice(A)                      Reciprocal Lattice(1/A)
    11.8016820    -0.0000080    -0.0000080        0.532397442   0.000000361   0.000000361
    -0.0000080    11.8016820    -0.0000080        0.000000361   0.532397442   0.000000361
    -0.0000080    -0.0000080    11.8016820        0.000000361   0.000000361   0.532397442

                       Lattice parameters(A)       Cell Angles
                    a =     11.801682          alpha =   90.000078
                    b =     11.801682          beta  =   90.000078
                    c =     11.801682          gamma =   90.000078

                       Current cell volume =          1643.734705       A**3
                                   density =             2.857097   AMU/A**3
                                           =             4.744322     g/cm^3

                           -------------------------------
                                     Cell Contents
                           -------------------------------
                         Total number of ions in cell =   65
                      Total number of species in cell =    2
                        Max number of any one species =   33

            xxxxxxxxxxxxxxxxxxxxxxxxxxxxxxxxxxxxxxxxxxxxxxxxxxxxxxxxxxxx
            x  Element    Atom        Fractional coordinates of atoms  x
            x            Number           u          v          w      x
            x----------------------------------------------------------x
            x  P            1         0.120829   0.115628   0.370484   x 
            x  P            2         0.379776   0.108775   0.108701   x 
            x  P            3         0.120829   0.370557   0.115554   x 
            x  P            4         0.334005   0.425211   0.425137   x 
            x  P            5         0.124350   0.120563   0.871326   x 
            x  P            6         0.373832   0.120484   0.619448   x 
            x  P            7         0.116828   0.371020   0.627374   x 
            x  P            8         0.373962   0.369654   0.869632   x 
            x  P            9         0.116828   0.627448   0.370946   x 
            x  P           10         0.373832   0.619522   0.120410   x 
            x  P           11         0.124350   0.871400   0.120489   x 
            x  P           12         0.373962   0.869706   0.369580   x 
            x  P           13         0.123332   0.620042   0.869632   x 
            x  P           14         0.376319   0.624919   0.624845   x 
            x  P           15         0.123332   0.869706   0.619968   x 
            x  P           16         0.369668   0.867937   0.867863   x 
            x  P           17         0.630358   0.115711   0.371730   x 
            x  P           18         0.875472   0.119727   0.119653   x 
            x  P           19         0.630358   0.371804   0.115638   x 
            x  P           20         0.877288   0.369834   0.369761   x 
            x  P           21         0.624909   0.118638   0.868010   x 
            x  P           22         0.875042   0.118729   0.620168   x 
            x  P           23         0.627571   0.367370   0.621426   x 
            x  P           24         0.870962   0.369981   0.869508   x 
            x  P           25         0.627571   0.621500   0.367296   x 
            x  P           26         0.875042   0.620241   0.118656   x 
            x  P           27         0.624909   0.868084   0.118564   x 
            x  P           28         0.870962   0.869582   0.369907   x 
            x  P           29         0.622998   0.620035   0.870234   x 
            x  P           30         0.872784   0.620881   0.620807   x 
            x  P           31         0.622998   0.870308   0.619961   x 
            x  P           32         0.873667   0.869906   0.869832   x 
            x  P           33         0.335703   0.297219   0.297145   x 
            x  In           1        -0.000324  -0.005638  -0.005712   x 
            x  In           2         0.252249  -0.002830   0.243338   x 
            x  In           3         0.001963   0.244465   0.244391   x 
            x  In           4         0.252249   0.243411  -0.002904   x 
            x  In           5        -0.003387  -0.008440   0.494347   x 
            x  In           6         0.247301  -0.003882   0.744142   x 
            x  In           7        -0.004493   0.243389   0.749333   x 
            x  In           8         0.235778   0.239376   0.505080   x 
            x  In           9        -0.003387   0.494421  -0.008514   x 
            x  In          10         0.235778   0.505154   0.239302   x 
            x  In          11        -0.004493   0.749407   0.243315   x 
            x  In          12         0.247301   0.744216  -0.003956   x 
            x  In          13        -0.001160   0.496633   0.496559   x 
            x  In          14         0.249937   0.496542   0.744683   x 
            x  In          15        -0.001063   0.745296   0.745222   x 
            x  In          16         0.249937   0.744757   0.496468   x 
            x  In          17         0.501786  -0.013793  -0.013867   x 
            x  In          18         0.750998  -0.006928   0.242234   x 
            x  In          19         0.519442   0.228060   0.227986   x 
            x  In          20         0.750998   0.242307  -0.007002   x 
            x  In          21         0.498039  -0.005315   0.494138   x 
            x  In          22         0.749432  -0.005661   0.743363   x 
            x  In          23         0.498639   0.244583   0.745217   x 
            x  In          24         0.753253   0.245206   0.494416   x 
            x  In          25         0.498039   0.494212  -0.005389   x 
            x  In          26         0.753253   0.494490   0.245132   x 
            x  In          27         0.498639   0.745291   0.244510   x 
            x  In          28         0.749432   0.743437  -0.005735   x 
            x  In          29         0.512234   0.504755   0.504681   x 
            x  In          30         0.748653   0.495953   0.745498   x 
            x  In          31         0.498793   0.747766   0.747692   x 
            x  In          32         0.748653   0.745572   0.495879   x 
            xxxxxxxxxxxxxxxxxxxxxxxxxxxxxxxxxxxxxxxxxxxxxxxxxxxxxxxxxxxx


                         No user defined ionic velocities

                           -------------------------------
                                   Details of Species
                           -------------------------------

                               Mass of species in AMU
                                    P   30.9737600
                                    In  114.8180000

                          Electric Quadrupole Moment (Barn)
                                    P    1.0000000 No Isotope Defined
                                    In    0.7700000 Isotope115

                          Files used for pseudopotentials:
                                    P 3|1.8|4|4|5|30:31:32
                                    In 3|2.5|2.5|1.5|7|8|9|50:51:42U2.2U2.2

                           -------------------------------
                              k-Points For BZ Sampling
                           -------------------------------
                       MP grid size for SCF calculation is  4  4  4
                            with an offset of   0.125  0.125  0.125
                       Number of kpoints used =            36

                           -------------------------------
                               Symmetry and Constraints
                           -------------------------------

                      Maximum deviation from symmetry =  0.00000         ANG

                      Number of symmetry operations   =           1
                      Number of ionic constraints     =           3
                      Point group of crystal =     1: C1, 1, 1
                      Space group of crystal =     8: Cm, C -2y

             Set iprint > 1 for details on symmetry rotations/translations

                         Centre of mass is constrained
             Set iprint > 1 for details of linear ionic constraints

                         Number of cell constraints= 0
                         Cell constraints are:  1 2 3 4 5 6

                         External pressure/stress (GPa)
                          0.00000   0.00000   0.00000
                                    0.00000   0.00000
                                              0.00000
 
+---------------- MEMORY AND SCRATCH DISK ESTIMATES PER PROCESS --------------+
|                                                     Memory          Disk    |
| Baseline code, static data and system overhead      368.0 MB         0.0 MB |
| BLAS internal memory storage                          0.0 MB         0.0 MB |
| Model and support data                             4327.0 MB         0.0 MB |
| Electronic energy minimisation requirements        1337.1 MB         0.0 MB |
| Force calculation requirements                      127.4 MB         0.0 MB |
|                                               ----------------------------- |
| Approx. total storage required per process         6032.2 MB         0.0 MB |
|                                                                             |
| Requirements will fluctuate during execution and may exceed these estimates |
+-----------------------------------------------------------------------------+
Calculating approximate eigenstates for fixed initial Hamiltonian
Cut-off for approx. calculation is   89.988 eV
Improving approx. states at cut-off of  450.000 eV
Resetting cut-off to  900.000 eV
Calculating total energy with cut-off of  900.000 eV.
------------------------------------------------------------------------ <-- SCF
SCF loop      Energy           Fermi           Energy gain       Timer   <-- SCF
                               energy          per atom          (sec)   <-- SCF
------------------------------------------------------------------------ <-- SCF
Initial  -6.32547043E+004  0.00000000E+000                       459.12  <-- SCF
      1  -6.30179258E+004  2.90694621E+000  -3.64274599E+000     908.06  <-- SCF
      2  -6.30182050E+004  2.90661282E+000   4.29499170E-003    1221.87  <-- SCF
      3  -6.30841938E+004  3.18972096E+000   1.01521266E+000    1571.71  <-- SCF
      4  -6.30957835E+004  3.27389838E+000   1.78302338E-001    2071.39  <-- SCF
      5  -6.31016733E+004  3.44329553E+000   9.06122995E-002    2422.41  <-- SCF
      6  -6.30903040E+004  3.63260659E+000  -1.74912301E-001    2771.51  <-- SCF
      7  -6.30889688E+004  3.68034884E+000  -2.05412105E-002    3132.89  <-- SCF
      8  -6.30891225E+004  3.72029037E+000   2.36529992E-003    3504.51  <-- SCF
      9  -6.30899467E+004  3.74510520E+000   1.26790134E-002    3864.69  <-- SCF
     10  -6.30902171E+004  3.72534273E+000   4.16098772E-003    4217.63  <-- SCF
     11  -6.30902238E+004  3.71861271E+000   1.02794822E-004    4590.21  <-- SCF
     12  -6.30902265E+004  3.71266578E+000   4.05326996E-005    4968.00  <-- SCF
     13  -6.30902276E+004  3.71212139E+000   1.75238516E-005    5334.46  <-- SCF
     14  -6.30902279E+004  3.71117815E+000   4.07350420E-006    5701.18  <-- SCF
     15  -6.30902279E+004  3.71047267E+000   1.00544052E-006    6060.11  <-- SCF
     16  -6.30902279E+004  3.71038972E+000   2.85651902E-007    6371.97  <-- SCF
     17  -6.30902279E+004  3.71024653E+000   7.96928138E-008    6656.01  <-- SCF
     18  -6.30902280E+004  3.71029405E+000   2.71598879E-008    6905.50  <-- SCF
     19  -6.30902280E+004  3.71033507E+000   9.03495660E-009    7156.33  <-- SCF
     20  -6.30902280E+004  3.71033747E+000   2.71587456E-009    7406.33  <-- SCF
     21  -6.30902280E+004  3.71034020E+000   7.27418807E-010    7659.58  <-- SCF
------------------------------------------------------------------------ <-- SCF
 
Integrated Spin Density     =    0.995167     hbar/2
Integrated |Spin Density|   =     1.21735     hbar/2
 
Final energy, E             =  -63090.22442404     eV
Final free energy (E-TS)    =  -63090.22795083     eV
(energies not corrected for finite basis set)
 
NB est. 0K energy (E-0.5TS)      =  -63090.22618744     eV
 

 ************************** Forces **************************
 *                                                          *
 *               Cartesian components (eV/A)                *
 * -------------------------------------------------------- *
 *                         x            y            z      *
 *                                                          *
 * P               1      0.01112     -0.04175      0.00631 *
 * P               2     -0.00641      0.02587      0.02550 *
 * P               3      0.01114      0.00607     -0.04207 *
 * P               4      0.03296     -0.02014     -0.01992 *
 * P               5     -0.00178      0.01488     -0.02035 *
 * P               6      0.03146      0.00117     -0.01078 *
 * P               7      0.00231     -0.02080      0.02279 *
 * P               8     -0.02945      0.00974      0.00225 *
 * P               9      0.00229      0.02281     -0.02062 *
 * P              10      0.03144     -0.01087      0.00140 *
 * P              11     -0.00177     -0.02058      0.01513 *
 * P              12     -0.02944      0.00208      0.00990 *
 * P              13      0.00211     -0.01591      0.01667 *
 * P              14     -0.01485     -0.01752     -0.01784 *
 * P              15      0.00211      0.01650     -0.01568 *
 * P              16      0.04267     -0.01357     -0.01384 *
 * P              17     -0.01671      0.01743     -0.02402 *
 * P              18      0.01977     -0.01140     -0.01123 *
 * P              19     -0.01668     -0.02418      0.01712 *
 * P              20      0.00493      0.01219      0.01235 *
 * P              21     -0.01840     -0.01450     -0.00695 *
 * P              22      0.01339      0.00475      0.00398 *
 * P              23      0.01732      0.02549     -0.01031 *
 * P              24      0.02352     -0.00424      0.00051 *
 * P              25      0.01727     -0.01050      0.02516 *
 * P              26      0.01341      0.00380      0.00468 *
 * P              27     -0.01840     -0.00681     -0.01453 *
 * P              28      0.02352      0.00037     -0.00402 *
 * P              29     -0.01497      0.01967      0.00974 *
 * P              30      0.01412      0.00584      0.00613 *
 * P              31     -0.01496      0.00947      0.01989 *
 * P              32     -0.00703      0.00022      0.00044 *
 * P              33      0.01533     -0.00823     -0.00820 *
 * In              1     -0.00223     -0.00908     -0.00916 *
 * In              2      0.00993     -0.02021     -0.00342 *
 * In              3     -0.07838      0.00800      0.00793 *
 * In              4      0.00993     -0.00334     -0.02028 *
 * In              5     -0.02172      0.00929     -0.00083 *
 * In              6     -0.02328     -0.03788      0.03777 *
 * In              7     -0.01693      0.02874     -0.01108 *
 * In              8     -0.06641      0.03283      0.03720 *
 * In              9     -0.02172     -0.00077      0.00922 *
 * In             10     -0.06641      0.03727      0.03276 *
 * In             11     -0.01693     -0.01100      0.02867 *
 * In             12     -0.02328      0.03784     -0.03794 *
 * In             13     -0.01172     -0.03183     -0.03190 *
 * In             14      0.00607     -0.04359      0.00101 *
 * In             15     -0.00839      0.01242      0.01235 *
 * In             16      0.00607      0.00107     -0.04365 *
 * In             17     -0.02529      0.03165      0.03158 *
 * In             18     -0.01389     -0.00499      0.06331 *
 * In             19      0.02400      0.01074      0.01067 *
 * In             20     -0.01389      0.06340     -0.00507 *
 * In             21      0.05169      0.01119     -0.05400 *
 * In             22      0.02645      0.00210     -0.00536 *
 * In             23      0.03643      0.03890      0.00864 *
 * In             24     -0.01329     -0.05033      0.00931 *
 * In             25      0.05170     -0.05393      0.01112 *
 * In             26     -0.01329      0.00938     -0.05040 *
 * In             27      0.03643      0.00871      0.03883 *
 * In             28      0.02645     -0.00528      0.00202 *
 * In             29      0.01655      0.01216      0.01210 *
 * In             30     -0.00919     -0.04600      0.01287 *
 * In             31      0.01237     -0.00775     -0.00783 *
 * In             32     -0.00918      0.01294     -0.04606 *
 *                                                          *
 ************************************************************

 Pseudo atomic calculation performed for P 3s2 3p3

 Converged in 23 iterations to a total energy of -208.0292 eV

 Pseudo atomic calculation performed for In 4d10 5s2 5p1

 Converged in 42 iterations to a total energy of -1747.4501 eV
Charge spilling parameter for spin component 1 = 0.18%
Charge spilling parameter for spin component 2 = 0.18%

                   Orbital Populations                  
  ---------------------------------------------------------------
     Ion    Atom   Orbital              Up        Down      Spin
  ---------------------------------------------------------------
      P     1      S                    0.873     0.868     0.005
      P     1      Px                   0.659     0.643     0.016
      P     1      Py                   0.652     0.647     0.005
      P     1      Pz                   0.650     0.646     0.004
      P     2      S                    0.867     0.867     0.000
      P     2      Px                   0.646     0.646    -0.000
      P     2      Py                   0.660     0.657     0.003
      P     2      Pz                   0.660     0.657     0.003
      P     3      S                    0.873     0.868     0.005
      P     3      Px                   0.659     0.643     0.016
      P     3      Py                   0.650     0.646     0.004
      P     3      Pz                   0.652     0.647     0.005
      P     4      S                    0.886     0.880     0.007
      P     4      Px                   0.710     0.704     0.006
      P     4      Py                   0.645     0.500     0.145
      P     4      Pz                   0.645     0.500     0.145
      P     5      S                    0.867     0.867     0.000
      P     5      Px                   0.655     0.655     0.000
      P     5      Py                   0.658     0.658     0.000
      P     5      Pz                   0.656     0.656     0.000
      P     6      S                    0.868     0.868    -0.000
      P     6      Px                   0.653     0.653    -0.001
      P     6      Py                   0.658     0.658    -0.000
      P     6      Pz                   0.658     0.659    -0.001
      P     7      S                    0.872     0.867     0.005
      P     7      Px                   0.662     0.646     0.016
      P     7      Py                   0.653     0.645     0.008
      P     7      Pz                   0.658     0.648     0.010
      P     8      S                    0.867     0.867    -0.000
      P     8      Px                   0.659     0.659    -0.000
      P     8      Py                   0.657     0.657    -0.000
      P     8      Pz                   0.655     0.655    -0.000
      P     9      S                    0.872     0.867     0.005
      P     9      Px                   0.662     0.646     0.016
      P     9      Py                   0.658     0.648     0.010
      P     9      Pz                   0.653     0.645     0.008
      P    10      S                    0.868     0.868    -0.000
      P    10      Px                   0.653     0.653    -0.001
      P    10      Py                   0.658     0.659    -0.001
      P    10      Pz                   0.658     0.658    -0.000
      P    11      S                    0.867     0.867     0.000
      P    11      Px                   0.655     0.655     0.000
      P    11      Py                   0.656     0.656     0.000
      P    11      Pz                   0.658     0.658     0.000
      P    12      S                    0.867     0.867    -0.000
      P    12      Px                   0.659     0.659    -0.000
      P    12      Py                   0.655     0.655    -0.000
      P    12      Pz                   0.657     0.657    -0.000
      P    13      S                    0.867     0.867    -0.000
      P    13      Px                   0.656     0.656    -0.000
      P    13      Py                   0.658     0.658    -0.000
      P    13      Pz                   0.656     0.656    -0.000
      P    14      S                    0.866     0.866    -0.000
      P    14      Px                   0.649     0.649    -0.000
      P    14      Py                   0.659     0.659     0.000
      P    14      Pz                   0.659     0.659     0.000
      P    15      S                    0.867     0.867    -0.000
      P    15      Px                   0.656     0.656    -0.000
      P    15      Py                   0.656     0.656    -0.000
      P    15      Pz                   0.658     0.658    -0.000
      P    16      S                    0.864     0.864    -0.000
      P    16      Px                   0.652     0.653    -0.001
      P    16      Py                   0.661     0.662    -0.001
      P    16      Pz                   0.661     0.662    -0.001
      P    17      S                    0.868     0.866     0.002
      P    17      Px                   0.665     0.659     0.006
      P    17      Py                   0.663     0.660     0.003
      P    17      Pz                   0.649     0.646     0.003
      P    18      S                    0.867     0.867    -0.000
      P    18      Px                   0.656     0.656    -0.000
      P    18      Py                   0.657     0.657    -0.000
      P    18      Pz                   0.657     0.657    -0.000
      P    19      S                    0.868     0.866     0.002
      P    19      Px                   0.665     0.659     0.006
      P    19      Py                   0.649     0.646     0.003
      P    19      Pz                   0.663     0.660     0.003
      P    20      S                    0.867     0.867    -0.000
      P    20      Px                   0.657     0.657    -0.000
      P    20      Py                   0.657     0.657    -0.000
      P    20      Pz                   0.657     0.657    -0.000
      P    21      S                    0.867     0.866     0.000
      P    21      Px                   0.657     0.657     0.000
      P    21      Py                   0.655     0.655     0.000
      P    21      Pz                   0.659     0.659     0.000
      P    22      S                    0.866     0.866    -0.000
      P    22      Px                   0.659     0.659    -0.000
      P    22      Py                   0.656     0.656     0.000
      P    22      Pz                   0.656     0.656     0.001
      P    23      S                    0.868     0.867     0.001
      P    23      Px                   0.662     0.658     0.003
      P    23      Py                   0.652     0.651     0.002
      P    23      Pz                   0.660     0.658     0.002
      P    24      S                    0.864     0.864     0.001
      P    24      Px                   0.662     0.659     0.003
      P    24      Py                   0.655     0.653     0.001
      P    24      Pz                   0.663     0.660     0.003
      P    25      S                    0.868     0.867     0.001
      P    25      Px                   0.662     0.658     0.003
      P    25      Py                   0.660     0.658     0.002
      P    25      Pz                   0.652     0.651     0.002
      P    26      S                    0.866     0.866    -0.000
      P    26      Px                   0.659     0.659    -0.000
      P    26      Py                   0.656     0.656     0.001
      P    26      Pz                   0.656     0.656     0.000
      P    27      S                    0.867     0.866     0.000
      P    27      Px                   0.657     0.657     0.000
      P    27      Py                   0.659     0.659     0.000
      P    27      Pz                   0.655     0.655     0.000
      P    28      S                    0.864     0.864     0.001
      P    28      Px                   0.662     0.659     0.003
      P    28      Py                   0.663     0.660     0.003
      P    28      Pz                   0.655     0.653     0.001
      P    29      S                    0.867     0.867     0.000
      P    29      Px                   0.657     0.657     0.000
      P    29      Py                   0.656     0.656    -0.000
      P    29      Pz                   0.657     0.657    -0.000
      P    30      S                    0.867     0.867    -0.000
      P    30      Px                   0.656     0.656    -0.000
      P    30      Py                   0.657     0.658    -0.000
      P    30      Pz                   0.657     0.658    -0.000
      P    31      S                    0.867     0.867     0.000
      P    31      Px                   0.657     0.657     0.000
      P    31      Py                   0.657     0.657    -0.000
      P    31      Pz                   0.656     0.656    -0.000
      P    32      S                    0.867     0.867    -0.000
      P    32      Px                   0.657     0.657     0.000
      P    32      Py                   0.657     0.657    -0.000
      P    32      Pz                   0.657     0.657    -0.000
      P    33      S                    0.907     0.895     0.012
      P    33      Px                   0.722     0.710     0.012
      P    33      Py                   0.673     0.425     0.248
      P    33      Pz                   0.673     0.425     0.248
     In     1      Dzz                  1.000     1.000    -0.000
     In     1      Dzy                  0.998     0.998    -0.000
     In     1      Dzx                  0.998     0.998    -0.000
     In     1      Dxx-yy               1.000     1.000     0.000
     In     1      Dxy                  0.998     0.998     0.000
     In     1      S                    0.706     0.706    -0.000
     In     1      Px                   0.242     0.242    -0.000
     In     1      Py                   0.241     0.241     0.000
     In     1      Pz                   0.241     0.241     0.000
     In     1      S                   -0.264    -0.264    -0.000
     In     2      Dzz                  1.000     1.000     0.000
     In     2      Dzy                  0.999     0.999     0.000
     In     2      Dzx                  0.998     0.998     0.000
     In     2      Dxx-yy               1.000     1.000    -0.000
     In     2      Dxy                  0.999     0.999     0.000
     In     2      S                    0.704     0.704    -0.001
     In     2      Px                   0.240     0.240    -0.001
     In     2      Py                   0.231     0.231    -0.000
     In     2      Pz                   0.242     0.241     0.001
     In     2      S                   -0.253    -0.255     0.001
     In     3      Dzz                  1.000     1.000     0.000
     In     3      Dzy                  0.998     0.998    -0.000
     In     3      Dzx                  0.999     0.999     0.000
     In     3      Dxx-yy               1.000     1.000    -0.000
     In     3      Dxy                  0.999     0.999     0.000
     In     3      S                    0.705     0.706    -0.001
     In     3      Px                   0.233     0.233    -0.001
     In     3      Py                   0.242     0.240     0.002
     In     3      Pz                   0.242     0.240     0.002
     In     3      S                   -0.253    -0.259     0.006
     In     4      Dzz                  1.000     1.000    -0.000
     In     4      Dzy                  0.999     0.999     0.000
     In     4      Dzx                  0.999     0.999     0.000
     In     4      Dxx-yy               1.000     1.000     0.000
     In     4      Dxy                  0.998     0.998     0.000
     In     4      S                    0.704     0.704    -0.001
     In     4      Px                   0.240     0.240    -0.001
     In     4      Py                   0.242     0.241     0.001
     In     4      Pz                   0.231     0.231    -0.000
     In     4      S                   -0.253    -0.255     0.001
     In     5      Dzz                  1.000     1.000     0.000
     In     5      Dzy                  0.998     0.998     0.000
     In     5      Dzx                  0.998     0.998    -0.000
     In     5      Dxx-yy               1.000     1.000     0.000
     In     5      Dxy                  0.998     0.998    -0.000
     In     5      S                    0.717     0.715     0.002
     In     5      Px                   0.241     0.241     0.000
     In     5      Py                   0.243     0.240     0.002
     In     5      Pz                   0.250     0.246     0.005
     In     5      S                   -0.268    -0.269     0.001
     In     6      Dzz                  1.000     1.000    -0.000
     In     6      Dzy                  0.998     0.998    -0.000
     In     6      Dzx                  0.998     0.998    -0.000
     In     6      Dxx-yy               1.000     1.000    -0.000
     In     6      Dxy                  0.998     0.998    -0.000
     In     6      S                    0.707     0.707     0.001
     In     6      Px                   0.240     0.241    -0.000
     In     6      Py                   0.241     0.241     0.000
     In     6      Pz                   0.240     0.240     0.000
     In     6      S                   -0.265    -0.266     0.001
     In     7      Dzz                  1.000     1.000     0.000
     In     7      Dzy                  0.998     0.998     0.000
     In     7      Dzx                  0.998     0.998    -0.000
     In     7      Dxx-yy               1.000     1.000     0.000
     In     7      Dxy                  0.998     0.998     0.000
     In     7      S                    0.715     0.714     0.001
     In     7      Px                   0.241     0.241    -0.000
     In     7      Py                   0.252     0.248     0.004
     In     7      Pz                   0.241     0.241     0.001
     In     7      S                   -0.267    -0.268     0.001
     In     8      Dzz                  0.999     0.999     0.000
     In     8      Dzy                  0.999     0.999     0.000
     In     8      Dzx                  0.999     0.998     0.000
     In     8      Dxx-yy               1.000     0.999     0.000
     In     8      Dxy                  0.999     0.998     0.001
     In     8      S                    0.689     0.701    -0.012
     In     8      Px                   0.233     0.239    -0.006
     In     8      Py                   0.241     0.241     0.000
     In     8      Pz                   0.226     0.235    -0.009
     In     8      S                   -0.266    -0.262    -0.004
     In     9      Dzz                  1.000     1.000    -0.000
     In     9      Dzy                  0.998     0.998     0.000
     In     9      Dzx                  0.998     0.998     0.000
     In     9      Dxx-yy               1.000     1.000     0.000
     In     9      Dxy                  0.998     0.998    -0.000
     In     9      S                    0.717     0.715     0.002
     In     9      Px                   0.241     0.241     0.000
     In     9      Py                   0.250     0.246     0.005
     In     9      Pz                   0.243     0.240     0.002
     In     9      S                   -0.268    -0.269     0.001
     In    10      Dzz                  0.999     0.999     0.000
     In    10      Dzy                  0.999     0.999     0.000
     In    10      Dzx                  0.999     0.998     0.001
     In    10      Dxx-yy               1.000     0.999     0.000
     In    10      Dxy                  0.999     0.998     0.000
     In    10      S                    0.689     0.701    -0.012
     In    10      Px                   0.233     0.239    -0.006
     In    10      Py                   0.226     0.235    -0.009
     In    10      Pz                   0.241     0.241     0.000
     In    10      S                   -0.266    -0.262    -0.004
     In    11      Dzz                  1.000     1.000    -0.000
     In    11      Dzy                  0.998     0.998     0.000
     In    11      Dzx                  0.998     0.998     0.000
     In    11      Dxx-yy               1.000     1.000     0.000
     In    11      Dxy                  0.998     0.998     0.000
     In    11      S                    0.715     0.714     0.001
     In    11      Px                   0.241     0.241    -0.000
     In    11      Py                   0.241     0.241     0.001
     In    11      Pz                   0.252     0.248     0.004
     In    11      S                   -0.267    -0.268     0.001
     In    12      Dzz                  1.000     1.000    -0.000
     In    12      Dzy                  0.998     0.998    -0.000
     In    12      Dzx                  0.998     0.998    -0.000
     In    12      Dxx-yy               1.000     1.000     0.000
     In    12      Dxy                  0.998     0.998     0.000
     In    12      S                    0.707     0.707     0.001
     In    12      Px                   0.240     0.241    -0.000
     In    12      Py                   0.240     0.240     0.000
     In    12      Pz                   0.241     0.241     0.000
     In    12      S                   -0.265    -0.266     0.001
     In    13      Dzz                  1.000     1.000     0.000
     In    13      Dzy                  0.998     0.998    -0.000
     In    13      Dzx                  0.999     0.999     0.000
     In    13      Dxx-yy               1.000     1.000     0.000
     In    13      Dxy                  0.999     0.999     0.000
     In    13      S                    0.705     0.707    -0.001
     In    13      Px                   0.233     0.234    -0.001
     In    13      Py                   0.243     0.241     0.001
     In    13      Pz                   0.243     0.241     0.001
     In    13      S                   -0.254    -0.256     0.002
     In    14      Dzz                  1.000     1.000     0.000
     In    14      Dzy                  0.999     0.999     0.000
     In    14      Dzx                  0.999     0.999     0.000
     In    14      Dxx-yy               1.000     1.000     0.000
     In    14      Dxy                  0.998     0.998     0.000
     In    14      S                    0.705     0.706    -0.001
     In    14      Px                   0.241     0.242    -0.000
     In    14      Py                   0.241     0.240     0.001
     In    14      Pz                   0.234     0.234    -0.000
     In    14      S                   -0.256    -0.256    -0.000
     In    15      Dzz                  1.000     1.000     0.000
     In    15      Dzy                  0.998     0.998    -0.000
     In    15      Dzx                  0.998     0.998     0.000
     In    15      Dxx-yy               1.000     1.000     0.000
     In    15      Dxy                  0.998     0.998     0.000
     In    15      S                    0.706     0.707    -0.000
     In    15      Px                   0.242     0.242     0.000
     In    15      Py                   0.241     0.241    -0.000
     In    15      Pz                   0.241     0.241    -0.000
     In    15      S                   -0.265    -0.266     0.000
     In    16      Dzz                  1.000     1.000     0.000
     In    16      Dzy                  0.999     0.999     0.000
     In    16      Dzx                  0.998     0.998     0.000
     In    16      Dxx-yy               1.000     1.000     0.000
     In    16      Dxy                  0.999     0.999     0.000
     In    16      S                    0.705     0.706    -0.001
     In    16      Px                   0.241     0.242    -0.000
     In    16      Py                   0.234     0.234    -0.000
     In    16      Pz                   0.241     0.240     0.001
     In    16      S                   -0.256    -0.256    -0.000
     In    17      Dzz                  0.999     0.999    -0.000
     In    17      Dzy                  0.998     0.998     0.000
     In    17      Dzx                  0.998     0.998     0.000
     In    17      Dxx-yy               0.999     1.000    -0.000
     In    17      Dxy                  0.998     0.998     0.000
     In    17      S                    0.710     0.711    -0.001
     In    17      Px                   0.250     0.252    -0.001
     In    17      Py                   0.241     0.241    -0.000
     In    17      Pz                   0.241     0.241    -0.000
     In    17      S                   -0.266    -0.267     0.001
     In    18      Dzz                  1.000     1.000     0.000
     In    18      Dzy                  0.998     0.998     0.000
     In    18      Dzx                  0.998     0.998    -0.000
     In    18      Dxx-yy               1.000     1.000     0.000
     In    18      Dxy                  0.998     0.998    -0.000
     In    18      S                    0.708     0.707     0.001
     In    18      Px                   0.238     0.238    -0.000
     In    18      Py                   0.240     0.239     0.000
     In    18      Pz                   0.247     0.246     0.002
     In    18      S                   -0.265    -0.265    -0.000
     In    19      Dzz                  0.999     0.999     0.000
     In    19      Dzy                  0.998     0.998     0.000
     In    19      Dzx                  0.998     0.998     0.000
     In    19      Dxx-yy               0.999     0.999     0.000
     In    19      Dxy                  0.998     0.998     0.000
     In    19      S                    0.707     0.718    -0.010
     In    19      Px                   0.245     0.254    -0.009
     In    19      Py                   0.247     0.248    -0.001
     In    19      Pz                   0.247     0.248    -0.001
     In    19      S                   -0.261    -0.261     0.000
     In    20      Dzz                  1.000     1.000     0.000
     In    20      Dzy                  0.998     0.998     0.000
     In    20      Dzx                  0.998     0.998    -0.000
     In    20      Dxx-yy               1.000     1.000     0.000
     In    20      Dxy                  0.998     0.998     0.000
     In    20      S                    0.708     0.707     0.001
     In    20      Px                   0.238     0.238    -0.000
     In    20      Py                   0.247     0.246     0.002
     In    20      Pz                   0.240     0.239     0.000
     In    20      S                   -0.265    -0.265    -0.000
     In    21      Dzz                  1.000     1.000    -0.000
     In    21      Dzy                  0.999     0.999     0.000
     In    21      Dzx                  0.998     0.998     0.000
     In    21      Dxx-yy               1.000     1.000    -0.000
     In    21      Dxy                  0.998     0.998     0.000
     In    21      S                    0.712     0.712    -0.000
     In    21      Px                   0.240     0.240    -0.000
     In    21      Py                   0.239     0.239     0.000
     In    21      Pz                   0.240     0.239     0.000
     In    21      S                   -0.267    -0.271     0.004
     In    22      Dzz                  1.000     1.000    -0.000
     In    22      Dzy                  0.998     0.998    -0.000
     In    22      Dzx                  0.998     0.998     0.000
     In    22      Dxx-yy               1.000     1.000    -0.000
     In    22      Dxy                  0.998     0.998     0.000
     In    22      S                    0.707     0.707     0.000
     In    22      Px                   0.241     0.241    -0.000
     In    22      Py                   0.242     0.242     0.000
     In    22      Pz                   0.242     0.242    -0.000
     In    22      S                   -0.265    -0.266     0.001
     In    23      Dzz                  1.000     1.000    -0.000
     In    23      Dzy                  0.999     0.999    -0.000
     In    23      Dzx                  0.998     0.998    -0.000
     In    23      Dxx-yy               1.000     1.000    -0.000
     In    23      Dxy                  0.998     0.998     0.000
     In    23      S                    0.711     0.712    -0.000
     In    23      Px                   0.240     0.240    -0.000
     In    23      Py                   0.240     0.240     0.000
     In    23      Pz                   0.239     0.239    -0.000
     In    23      S                   -0.267    -0.270     0.002
     In    24      Dzz                  1.000     1.000     0.000
     In    24      Dzy                  0.998     0.998    -0.000
     In    24      Dzx                  0.998     0.998     0.000
     In    24      Dxx-yy               1.000     1.000     0.000
     In    24      Dxy                  0.998     0.998     0.000
     In    24      S                    0.712     0.713    -0.000
     In    24      Px                   0.239     0.239    -0.000
     In    24      Py                   0.242     0.240     0.001
     In    24      Pz                   0.241     0.240     0.001
     In    24      S                   -0.270    -0.270     0.000
     In    25      Dzz                  1.000     1.000    -0.000
     In    25      Dzy                  0.999     0.999    -0.000
     In    25      Dzx                  0.998     0.998     0.000
     In    25      Dxx-yy               1.000     1.000    -0.000
     In    25      Dxy                  0.998     0.998     0.000
     In    25      S                    0.712     0.712    -0.000
     In    25      Px                   0.240     0.240    -0.000
     In    25      Py                   0.240     0.239     0.000
     In    25      Pz                   0.239     0.239     0.000
     In    25      S                   -0.267    -0.271     0.004
     In    26      Dzz                  1.000     1.000     0.000
     In    26      Dzy                  0.998     0.998    -0.000
     In    26      Dzx                  0.998     0.998     0.000
     In    26      Dxx-yy               1.000     1.000    -0.000
     In    26      Dxy                  0.998     0.998     0.000
     In    26      S                    0.712     0.713    -0.000
     In    26      Px                   0.239     0.239    -0.000
     In    26      Py                   0.241     0.240     0.001
     In    26      Pz                   0.242     0.240     0.001
     In    26      S                   -0.270    -0.270     0.000
     In    27      Dzz                  1.000     1.000    -0.000
     In    27      Dzy                  0.999     0.999    -0.000
     In    27      Dzx                  0.998     0.998     0.000
     In    27      Dxx-yy               1.000     1.000     0.000
     In    27      Dxy                  0.998     0.998    -0.000
     In    27      S                    0.711     0.712    -0.000
     In    27      Px                   0.240     0.240    -0.000
     In    27      Py                   0.239     0.239    -0.000
     In    27      Pz                   0.240     0.240     0.000
     In    27      S                   -0.267    -0.270     0.002
     In    28      Dzz                  1.000     1.000    -0.000
     In    28      Dzy                  0.998     0.998     0.000
     In    28      Dzx                  0.998     0.998     0.000
     In    28      Dxx-yy               1.000     1.000    -0.000
     In    28      Dxy                  0.998     0.998     0.000
     In    28      S                    0.707     0.707     0.000
     In    28      Px                   0.241     0.241    -0.000
     In    28      Py                   0.242     0.242    -0.000
     In    28      Pz                   0.242     0.242     0.000
     In    28      S                   -0.265    -0.266     0.001
     In    29      Dzz                  0.999     0.999     0.000
     In    29      Dzy                  0.998     0.998     0.000
     In    29      Dzx                  0.998     0.998     0.000
     In    29      Dxx-yy               0.999     0.999     0.000
     In    29      Dxy                  0.998     0.998     0.000
     In    29      S                    0.717     0.724    -0.007
     In    29      Px                   0.245     0.250    -0.005
     In    29      Py                   0.244     0.243     0.001
     In    29      Pz                   0.244     0.243     0.001
     In    29      S                   -0.269    -0.272     0.003
     In    30      Dzz                  1.000     1.000     0.000
     In    30      Dzy                  0.998     0.998     0.000
     In    30      Dzx                  0.998     0.998    -0.000
     In    30      Dxx-yy               1.000     1.000     0.000
     In    30      Dxy                  0.998     0.998     0.000
     In    30      S                    0.708     0.708     0.000
     In    30      Px                   0.239     0.239    -0.000
     In    30      Py                   0.245     0.244     0.001
     In    30      Pz                   0.240     0.240     0.000
     In    30      S                   -0.265    -0.264    -0.001
     In    31      Dzz                  0.999     0.999    -0.000
     In    31      Dzy                  0.998     0.998    -0.000
     In    31      Dzx                  0.998     0.998     0.000
     In    31      Dxx-yy               1.000     1.000    -0.000
     In    31      Dxy                  0.998     0.998     0.000
     In    31      S                    0.709     0.710    -0.001
     In    31      Px                   0.249     0.250    -0.001
     In    31      Py                   0.241     0.241    -0.000
     In    31      Pz                   0.241     0.241    -0.000
     In    31      S                   -0.266    -0.266     0.000
     In    32      Dzz                  1.000     1.000     0.000
     In    32      Dzy                  0.998     0.998     0.000
     In    32      Dzx                  0.998     0.998     0.000
     In    32      Dxx-yy               1.000     1.000     0.000
     In    32      Dxy                  0.998     0.998    -0.000
     In    32      S                    0.708     0.708     0.000
     In    32      Px                   0.239     0.239    -0.000
     In    32      Py                   0.240     0.240     0.000
     In    32      Pz                   0.245     0.244     0.001
     In    32      S                   -0.265    -0.264    -0.001
  ---------------------------------------------------------------
                           Total:     290.997   290.002     0.995
  ---------------------------------------------------------------

     Atomic Populations (Mulliken)
     -----------------------------
Species          Ion Spin      s       p       d       f      Total   Charge(e)   Spin(hbar/2)
==============================================================================================
  P               1   up:     0.873   1.960   0.000   0.000   2.833    -0.636        0.030
                  1   dn:     0.868   1.935   0.000   0.000   2.803
  P               2   up:     0.867   1.965   0.000   0.000   2.832    -0.659        0.006
                  2   dn:     0.867   1.960   0.000   0.000   2.826
  P               3   up:     0.873   1.960   0.000   0.000   2.833    -0.636        0.030
                  3   dn:     0.868   1.935   0.000   0.000   2.803
  P               4   up:     0.886   2.000   0.000   0.000   2.886    -0.470        0.303
                  4   dn:     0.880   1.704   0.000   0.000   2.584
  P               5   up:     0.867   1.970   0.000   0.000   2.837    -0.674        0.001
                  5   dn:     0.867   1.970   0.000   0.000   2.837
  P               6   up:     0.868   1.968   0.000   0.000   2.836    -0.674       -0.002
                  6   dn:     0.868   1.970   0.000   0.000   2.838
  P               7   up:     0.872   1.972   0.000   0.000   2.843    -0.649        0.038
                  7   dn:     0.867   1.939   0.000   0.000   2.805
  P               8   up:     0.867   1.971   0.000   0.000   2.838    -0.676       -0.000
                  8   dn:     0.867   1.971   0.000   0.000   2.838
  P               9   up:     0.872   1.972   0.000   0.000   2.843    -0.649        0.038
                  9   dn:     0.867   1.939   0.000   0.000   2.805
  P              10   up:     0.868   1.968   0.000   0.000   2.836    -0.674       -0.002
                 10   dn:     0.868   1.970   0.000   0.000   2.838
  P              11   up:     0.867   1.970   0.000   0.000   2.837    -0.674        0.001
                 11   dn:     0.867   1.970   0.000   0.000   2.837
  P              12   up:     0.867   1.971   0.000   0.000   2.838    -0.676       -0.000
                 12   dn:     0.867   1.971   0.000   0.000   2.838
  P              13   up:     0.867   1.970   0.000   0.000   2.837    -0.674       -0.001
                 13   dn:     0.867   1.970   0.000   0.000   2.837
  P              14   up:     0.866   1.967   0.000   0.000   2.833    -0.666        0.000
                 14   dn:     0.866   1.967   0.000   0.000   2.833
  P              15   up:     0.867   1.970   0.000   0.000   2.837    -0.674       -0.001
                 15   dn:     0.867   1.970   0.000   0.000   2.837
  P              16   up:     0.864   1.975   0.000   0.000   2.839    -0.680       -0.002
                 16   dn:     0.864   1.977   0.000   0.000   2.841
  P              17   up:     0.868   1.976   0.000   0.000   2.844    -0.675        0.013
                 17   dn:     0.866   1.965   0.000   0.000   2.831
  P              18   up:     0.867   1.970   0.000   0.000   2.837    -0.674       -0.001
                 18   dn:     0.867   1.971   0.000   0.000   2.837
  P              19   up:     0.868   1.976   0.000   0.000   2.844    -0.675        0.013
                 19   dn:     0.866   1.965   0.000   0.000   2.831
  P              20   up:     0.867   1.971   0.000   0.000   2.838    -0.677       -0.001
                 20   dn:     0.867   1.972   0.000   0.000   2.839
  P              21   up:     0.867   1.971   0.000   0.000   2.838    -0.675        0.000
                 21   dn:     0.866   1.971   0.000   0.000   2.837
  P              22   up:     0.866   1.972   0.000   0.000   2.838    -0.675        0.001
                 22   dn:     0.866   1.971   0.000   0.000   2.837
  P              23   up:     0.868   1.974   0.000   0.000   2.842    -0.675        0.008
                 23   dn:     0.867   1.967   0.000   0.000   2.834
  P              24   up:     0.864   1.979   0.000   0.000   2.843    -0.679        0.007
                 24   dn:     0.864   1.972   0.000   0.000   2.836
  P              25   up:     0.868   1.974   0.000   0.000   2.842    -0.675        0.008
                 25   dn:     0.867   1.967   0.000   0.000   2.834
  P              26   up:     0.866   1.972   0.000   0.000   2.838    -0.675        0.001
                 26   dn:     0.866   1.971   0.000   0.000   2.837
  P              27   up:     0.867   1.971   0.000   0.000   2.838    -0.675        0.000
                 27   dn:     0.866   1.971   0.000   0.000   2.837
  P              28   up:     0.864   1.979   0.000   0.000   2.843    -0.679        0.007
                 28   dn:     0.864   1.972   0.000   0.000   2.836
  P              29   up:     0.867   1.971   0.000   0.000   2.838    -0.675        0.000
                 29   dn:     0.867   1.971   0.000   0.000   2.838
  P              30   up:     0.867   1.971   0.000   0.000   2.837    -0.675       -0.001
                 30   dn:     0.867   1.971   0.000   0.000   2.838
  P              31   up:     0.867   1.971   0.000   0.000   2.838    -0.675        0.000
                 31   dn:     0.867   1.971   0.000   0.000   2.838
  P              32   up:     0.867   1.970   0.000   0.000   2.837    -0.675       -0.000
                 32   dn:     0.867   1.970   0.000   0.000   2.837
  P              33   up:     0.907   2.068   0.000   0.000   2.975    -0.431        0.519
                 33   dn:     0.895   1.560   0.000   0.000   2.456
  In              1   up:     0.441   0.724   4.995   0.000   6.160     0.679       -0.000
                  1   dn:     0.442   0.724   4.995   0.000   6.160
  In              2   up:     0.450   0.712   4.995   0.000   6.157     0.686        0.001
                  2   dn:     0.450   0.712   4.995   0.000   6.157
  In              3   up:     0.452   0.718   4.995   0.000   6.164     0.680        0.008
                  3   dn:     0.447   0.714   4.995   0.000   6.156
  In              4   up:     0.450   0.712   4.995   0.000   6.157     0.686        0.001
                  4   dn:     0.450   0.712   4.995   0.000   6.157
  In              5   up:     0.449   0.734   4.994   0.000   6.177     0.656        0.010
                  5   dn:     0.446   0.727   4.994   0.000   6.167
  In              6   up:     0.442   0.721   4.995   0.000   6.158     0.686        0.001
                  6   dn:     0.440   0.721   4.995   0.000   6.156
  In              7   up:     0.447   0.734   4.994   0.000   6.175     0.655        0.006
                  7   dn:     0.446   0.729   4.994   0.000   6.169
  In              8   up:     0.423   0.700   4.995   0.000   6.119     0.733       -0.030
                  8   dn:     0.439   0.716   4.994   0.000   6.148
  In              9   up:     0.449   0.734   4.994   0.000   6.177     0.656        0.010
                  9   dn:     0.446   0.727   4.994   0.000   6.167
  In             10   up:     0.423   0.700   4.995   0.000   6.119     0.733       -0.030
                 10   dn:     0.439   0.716   4.994   0.000   6.148
  In             11   up:     0.447   0.734   4.994   0.000   6.175     0.655        0.006
                 11   dn:     0.446   0.729   4.994   0.000   6.169
  In             12   up:     0.442   0.721   4.995   0.000   6.158     0.686        0.001
                 12   dn:     0.440   0.721   4.995   0.000   6.156
  In             13   up:     0.451   0.718   4.995   0.000   6.164     0.674        0.003
                 13   dn:     0.450   0.716   4.995   0.000   6.162
  In             14   up:     0.449   0.716   4.995   0.000   6.160     0.679       -0.001
                 14   dn:     0.450   0.716   4.995   0.000   6.161
  In             15   up:     0.441   0.723   4.995   0.000   6.159     0.682        0.000
                 15   dn:     0.441   0.723   4.995   0.000   6.159
  In             16   up:     0.449   0.716   4.995   0.000   6.160     0.679       -0.001
                 16   dn:     0.450   0.716   4.995   0.000   6.161
  In             17   up:     0.444   0.732   4.994   0.000   6.169     0.659       -0.002
                 17   dn:     0.444   0.733   4.994   0.000   6.171
  In             18   up:     0.443   0.725   4.994   0.000   6.162     0.677        0.002
                 18   dn:     0.442   0.724   4.994   0.000   6.161
  In             19   up:     0.447   0.739   4.993   0.000   6.179     0.621       -0.020
                 19   dn:     0.457   0.750   4.992   0.000   6.199
  In             20   up:     0.443   0.725   4.994   0.000   6.162     0.677        0.002
                 20   dn:     0.442   0.724   4.994   0.000   6.161
  In             21   up:     0.444   0.719   4.995   0.000   6.158     0.688        0.004
                 21   dn:     0.441   0.718   4.995   0.000   6.154
  In             22   up:     0.442   0.725   4.994   0.000   6.161     0.678        0.001
                 22   dn:     0.441   0.725   4.994   0.000   6.160
  In             23   up:     0.444   0.719   4.995   0.000   6.158     0.686        0.002
                 23   dn:     0.442   0.719   4.995   0.000   6.156
  In             24   up:     0.442   0.722   4.995   0.000   6.158     0.685        0.002
                 24   dn:     0.442   0.720   4.995   0.000   6.157
  In             25   up:     0.444   0.719   4.995   0.000   6.158     0.688        0.004
                 25   dn:     0.441   0.718   4.995   0.000   6.154
  In             26   up:     0.442   0.722   4.995   0.000   6.158     0.685        0.002
                 26   dn:     0.442   0.720   4.995   0.000   6.157
  In             27   up:     0.444   0.719   4.995   0.000   6.158     0.686        0.002
                 27   dn:     0.442   0.719   4.995   0.000   6.156
  In             28   up:     0.442   0.725   4.994   0.000   6.161     0.678        0.001
                 28   dn:     0.441   0.725   4.994   0.000   6.160
  In             29   up:     0.448   0.733   4.994   0.000   6.174     0.644       -0.008
                 29   dn:     0.452   0.737   4.993   0.000   6.182
  In             30   up:     0.443   0.724   4.994   0.000   6.161     0.679        0.001
                 30   dn:     0.443   0.722   4.994   0.000   6.160
  In             31   up:     0.443   0.731   4.994   0.000   6.168     0.663       -0.001
                 31   dn:     0.444   0.732   4.994   0.000   6.169
  In             32   up:     0.443   0.724   4.994   0.000   6.161     0.679        0.001
                 32   dn:     0.443   0.722   4.994   0.000   6.160
==============================================================================================

                 Bond                   Population        Spin       Length (A)
================================================================================
              P 4  -- P 33                   0.36        -0.12          2.13629
              P 33 -- In 19                  0.78        -0.01          2.45651
              P 4  -- In 29                  0.71        -0.00          2.48733
              P 2  -- In 17                  0.69         0.00          2.50164
              P 14 -- In 31                  0.69         0.00          2.50859
              P 16 -- In 17                  0.66         0.00          2.51547
              P 16 -- In 31                  0.66         0.00          2.51892
              P 17 -- In 19                  0.65        -0.00          2.51979
              P 19 -- In 19                  0.65        -0.00          2.51979
              P 25 -- In 29                  0.65        -0.00          2.52586
              P 23 -- In 29                  0.65        -0.00          2.52586
              P 7  -- In 7                   0.64        -0.00          2.52795
              P 9  -- In 11                  0.64        -0.00          2.52795
              P 28 -- In 18                  0.67         0.00          2.52957
              P 24 -- In 20                  0.67         0.00          2.52958
              P 28 -- In 11                  0.65        -0.00          2.53060
              P 24 -- In 7                   0.65        -0.00          2.53060
              P 28 -- In 5                   0.66        -0.00          2.53535
              P 24 -- In 9                   0.66        -0.00          2.53535
              P 1  -- In 5                   0.63        -0.00          2.53571
              P 3  -- In 9                   0.63        -0.00          2.53571
              P 28 -- In 32                  0.67         0.00          2.53686
              P 24 -- In 30                  0.67         0.00          2.53686
              P 10 -- In 10                  0.68         0.00          2.53871
              P 6  -- In 8                   0.68         0.00          2.53871
              P 19 -- In 20                  0.64        -0.00          2.54118
              P 17 -- In 18                  0.64        -0.00          2.54118
              P 22 -- In 22                  0.67        -0.00          2.54292
              P 26 -- In 28                  0.67        -0.00          2.54292
              P 7  -- In 8                   0.64        -0.01          2.54312
              P 9  -- In 10                  0.64        -0.01          2.54312
              P 20 -- In 24                  0.66         0.00          2.54370
              P 20 -- In 26                  0.66         0.00          2.54370
              P 21 -- In 22                  0.66        -0.00          2.54471
              P 27 -- In 28                  0.66        -0.00          2.54471
              P 12 -- In 21                  0.66         0.00          2.54570
              P 8  -- In 25                  0.66         0.00          2.54570
              P 18 -- In 20                  0.67         0.00          2.54657
              P 18 -- In 18                  0.67         0.00          2.54657
              P 30 -- In 30                  0.67         0.00          2.54664
              P 30 -- In 32                  0.67         0.00          2.54664
              P 5  -- In 7                   0.66         0.00          2.54678
              P 11 -- In 11                  0.66         0.00          2.54678
              P 23 -- In 30                  0.64        -0.00          2.54731
              P 25 -- In 32                  0.64        -0.00          2.54731
              P 5  -- In 1                   0.67        -0.00          2.54736
              P 11 -- In 1                   0.67        -0.00          2.54736
              P 29 -- In 28                  0.67        -0.00          2.54755
              P 31 -- In 22                  0.67        -0.00          2.54755
              P 3  -- In 3                   0.67        -0.00          2.54839
              P 1  -- In 3                   0.67        -0.00          2.54839
              P 13 -- In 15                  0.67         0.00          2.54875
              P 15 -- In 15                  0.67         0.00          2.54875
              P 26 -- In 26                  0.66         0.00          2.54878
              P 22 -- In 24                  0.66         0.00          2.54879
              P 3  -- In 10                  0.64        -0.00          2.54880
              P 1  -- In 8                   0.64        -0.00          2.54880
              P 27 -- In 17                  0.65        -0.00          2.54901
              P 21 -- In 17                  0.65        -0.00          2.54901
              P 8  -- In 23                  0.66         0.00          2.54945
              P 12 -- In 27                  0.66         0.00          2.54945
              P 13 -- In 9                   0.65        -0.00          2.55000
              P 15 -- In 5                   0.65        -0.00          2.55000
              P 16 -- In 6                   0.67         0.00          2.55067
              P 16 -- In 12                  0.67         0.00          2.55067
              P 22 -- In 7                   0.65        -0.00          2.55134
              P 26 -- In 11                  0.65        -0.00          2.55134
              P 31 -- In 32                  0.66        -0.00          2.55159
              P 29 -- In 30                  0.66        -0.00          2.55159
              P 32 -- In 15                  0.66         0.00          2.55167
              P 31 -- In 31                  0.65         0.00          2.55197
              P 29 -- In 31                  0.65         0.00          2.55197
              P 30 -- In 13                  0.66         0.00          2.55215
              P 13 -- In 12                  0.67         0.00          2.55220
              P 15 -- In 6                   0.67         0.00          2.55220
              P 11 -- In 12                  0.67         0.00          2.55254
              P 5  -- In 6                   0.67         0.00          2.55254
              P 22 -- In 5                   0.65        -0.00          2.55262
              P 26 -- In 9                   0.65        -0.00          2.55262
              P 10 -- In 27                  0.66         0.00          2.55296
              P 6  -- In 23                  0.66         0.00          2.55296
              P 9  -- In 13                  0.66        -0.00          2.55343
              P 7  -- In 13                  0.66        -0.00          2.55343
              P 14 -- In 16                  0.67         0.00          2.55349
              P 14 -- In 14                  0.67         0.00          2.55349
              P 27 -- In 18                  0.66         0.00          2.55349
              P 21 -- In 20                  0.66         0.00          2.55349
              P 2  -- In 4                   0.67         0.00          2.55435
              P 2  -- In 2                   0.67         0.00          2.55435
              P 23 -- In 24                  0.65        -0.00          2.55450
              P 25 -- In 26                  0.65        -0.00          2.55450
              P 32 -- In 1                   0.66         0.00          2.55464
              P 18 -- In 1                   0.65         0.00          2.55471
              P 30 -- In 15                  0.66         0.00          2.55507
              P 27 -- In 27                  0.67         0.00          2.55540
              P 21 -- In 23                  0.67         0.00          2.55540
              P 15 -- In 16                  0.65         0.00          2.55564
              P 13 -- In 14                  0.65         0.00          2.55564
              P 32 -- In 22                  0.66         0.00          2.55616
              P 32 -- In 28                  0.66         0.00          2.55616
              P 31 -- In 21                  0.66        -0.00          2.55625
              P 29 -- In 25                  0.66        -0.00          2.55625
              P 19 -- In 26                  0.65        -0.00          2.55646
              P 17 -- In 24                  0.65        -0.00          2.55646
              P 20 -- In 13                  0.64         0.00          2.55664
              P 10 -- In 25                  0.66         0.00          2.55732
              P 6  -- In 21                  0.66         0.00          2.55732
              P 20 -- In 3                   0.65         0.00          2.55797
              P 12 -- In 2                   0.65         0.00          2.55850
              P 8  -- In 4                   0.65         0.00          2.55850
              P 25 -- In 27                  0.67         0.00          2.55920
              P 23 -- In 23                  0.67         0.00          2.55920
              P 6  -- In 6                   0.64         0.00          2.55924
              P 10 -- In 12                  0.64         0.00          2.55924
              P 12 -- In 16                  0.65        -0.00          2.56113
              P 8  -- In 14                  0.65        -0.00          2.56113
              P 18 -- In 3                   0.66         0.00          2.56178
              P 17 -- In 21                  0.67         0.00          2.56234
              P 19 -- In 25                  0.67         0.00          2.56234
              P 9  -- In 16                  0.65         0.01          2.56493
              P 7  -- In 14                  0.65         0.01          2.56494
              P 5  -- In 4                   0.64        -0.00          2.56582
              P 11 -- In 2                   0.64        -0.00          2.56582
              P 14 -- In 29                  0.55         0.00          2.56809
              P 3  -- In 4                   0.64         0.01          2.57129
              P 1  -- In 2                   0.64         0.01          2.57129
              P 2  -- In 19                  0.51         0.00          2.58465
              P 4  -- In 10                  0.40         0.01          2.65405
              P 4  -- In 8                   0.40         0.01          2.65405
              P 33 -- In 10                  0.19        -0.01          2.80691
              P 33 -- In 8                   0.19        -0.01          2.80691
================================================================================

 Hirshfeld supercell size:           2           2           2
Standard grid dimensions: 240 240 240
Fine grid dimensions:     240 240 240


     Hirshfeld Analysis
     ------------------
Species   Ion     Hirshfeld Charge (e)  Spin (hbar/2)
===================================================
  P        1                -0.23        0.03
  P        2                -0.24        0.01
  P        3                -0.23        0.03
  P        4                -0.17        0.24
  P        5                -0.24        0.00
  P        6                -0.23        0.00
  P        7                -0.23        0.03
  P        8                -0.24        0.00
  P        9                -0.23        0.03
  P       10                -0.23        0.00
  P       11                -0.24        0.00
  P       12                -0.24        0.00
  P       13                -0.24        0.00
  P       14                -0.24        0.00
  P       15                -0.24        0.00
  P       16                -0.24       -0.00
  P       17                -0.24        0.01
  P       18                -0.24        0.00
  P       19                -0.24        0.01
  P       20                -0.24       -0.00
  P       21                -0.24        0.00
  P       22                -0.24        0.00
  P       23                -0.24        0.01
  P       24                -0.24        0.01
  P       25                -0.24        0.01
  P       26                -0.24        0.00
  P       27                -0.24        0.00
  P       28                -0.24        0.01
  P       29                -0.24        0.00
  P       30                -0.24        0.00
  P       31                -0.24        0.00
  P       32                -0.24        0.00
  P       33                -0.16        0.38
  In       1                 0.24        0.00
  In       2                 0.25        0.01
  In       3                 0.24        0.00
  In       4                 0.25        0.01
  In       5                 0.23        0.01
  In       6                 0.24       -0.00
  In       7                 0.23        0.01
  In       8                 0.26        0.04
  In       9                 0.23        0.01
  In      10                 0.26        0.04
  In      11                 0.23        0.01
  In      12                 0.24       -0.00
  In      13                 0.24        0.00
  In      14                 0.25        0.00
  In      15                 0.24        0.00
  In      16                 0.25        0.00
  In      17                 0.22       -0.00
  In      18                 0.24        0.00
  In      19                 0.21        0.03
  In      20                 0.24        0.00
  In      21                 0.25        0.00
  In      22                 0.23        0.00
  In      23                 0.25        0.00
  In      24                 0.24        0.00
  In      25                 0.25        0.00
  In      26                 0.24        0.00
  In      27                 0.25        0.00
  In      28                 0.23        0.00
  In      29                 0.22        0.02
  In      30                 0.24        0.00
  In      31                 0.23       -0.00
  In      32                 0.24        0.00
===================================================

 
 A BibTeX formatted list of references used in this run has been written to 
 P_Interstitial_Migration_Dumbbell#_Dumbbell+_Singlepoints_1.bib
 
Initialisation time =     31.62 s
Calculation time    =   7890.44 s
Finalisation time   =    163.78 s
Total time          =   8085.84 s
Peak Memory Use     = 9666484 kB
 
Overall parallel efficiency rating: Terrible (34%)
 
Data was distributed by:-
G-vector (3-way); efficiency rating: Poor (37%)
k-point (36-way); efficiency rating: Very good (83%)
