 +-------------------------------------------------+
 |                                                 |
 |      CCC   AA    SSS  TTTTT  EEEEE  PPPP        |
 |     C     A  A  S       T    E      P   P       |
 |     C     AAAA   SS     T    EEE    PPPP        |
 |     C     A  A     S    T    E      P           |
 |      CCC  A  A  SSS     T    EEEEE  P           |
 |                                                 |
 +-------------------------------------------------+
 |                                                 |
 | Welcome to Academic Release CASTEP version 24.1 |
 | Ab Initio Total Energy Program                  |
 |                                                 |
 | Authors:                                        |
 | M. Segall, M. Probert, C. Pickard, P. Hasnip,   |
 | S. Clark, K. Refson, J. R. Yates,               |
 | A. Bartok-Partay, M. Payne                      |
 |                                                 |
 | Contributors:                                   |
 | P. Lindan, P. Haynes, J. White, V. Milman,      |
 | N. Govind, M. Gibson, P. Tulip, V. Cocula,      |
 | B. Montanari, D. Quigley, M. Glover,            |
 | L. Bernasconi, A. Perlov, M. Plummer,           |
 | E. McNellis, J. Meyer, J. Gale, D. Jochym       |
 | J. Aarons, B. Walker, R. Gillen, D. Jones       |
 | T. Green, I. J. Bush, C. J. Armstrong,          |
 | E. J. Higgins, E. L. Brown, M. S. McFly,        |
 | J. Wilkins, B-C. Shih, P. J. P. Byrne,          |
 | R. J. Maurer, J. C. Womack, J. Dziedzic,        |
 | L. LeBlanc, T. K. Stenczel, J. Kermode,         |
 | S. Sturniolo, B. Shi, B. Durham, M. Evans,      |
 | M. J. Smith, A. Tamerus, Z. Hawkhead,           |
 | V. Ravindran, T. Hollins, S. A. Joyce,          |
 | R. T. Strong, A. M. Reilly, S. J. Donaldson     |
 |                                                 |
 | Copyright (c) 2000 - 2023                       |
 |                                                 |
 |     Distributed under license from Cambridge    |
 |     Enterprise for academic use only.           |
 |                                                 |
 | Please cite                                     |
 |                                                 |
 |     "First principles methods using CASTEP"     |
 |                                                 |
 |         Zeitschrift fuer Kristallographie       |
 |           220(5-6) pp. 567-570 (2005)           |
 |                                                 |
 | S. J. Clark, M. D. Segall, C. J. Pickard,       |
 | P. J. Hasnip, M. J. Probert, K. Refson,         |
 | M. C. Payne                                     |
 |                                                 |
 |       in all publications arising from          |
 |              your use of CASTEP                 |
 |                                                 |
 +-------------------------------------------------+
 |                                                 |
 |              http://www.castep.org              |
 |                                                 |
 +-------------------------------------------------+



 Compiled for  GNU 11.2.0 on 04-04-2024 18:39:17
 from code version 6355fd106 Castep241_branch Thu Mar 7 17:56:19 2024 +0000
 Compiler: GNU Fortran 11.2.0; Optimisation: FAST
 Comms   : MPI VERSION : CRAY MPICH version 8.1.23.14 (ANL base 3.4a2)
 MATHLIBS: default (LAPACK version 3.10.1)
 FFT Lib : fftw3 version commercial-fftw-3.3.10-sse2-avx-avx2-avx2_128
 Fundamental constants values: CODATA 2018

 Run started: Wed, 30 Jul 2025 01:33:52 +0100

 Atomic calculation performed for P: 1s2 2s2 2p6 3s2 3p3

 Converged in 47 iterations to an ae energy of -9309.074 eV

   ============================================================                
   | Pseudopotential Report - Date of generation 30-07-2025   |                
   ------------------------------------------------------------                
   | Element: P Ionic charge:  5.00 Level of theory: RSCAN    |                
   | Atomic Solver: Koelling-Harmon                           |                
   |                                                          |                
   |               Reference Electronic Structure             |                
   |         Orbital         Occupation         Energy        |                
   |            3s              2.000           -0.535        |                
   |            3p              3.000           -0.209        |                
   |                                                          |                
   |                 Pseudopotential Definition               |                
   |        Beta     l      e      Rc     scheme   norm       |                
   |          1      0   -0.535   1.807     qc      0         |                
   |          2      0    0.250   1.807     qc      0         |                
   |          3      1   -0.209   1.807     qc      0         |                
   |          4      1    0.250   1.807     qc      0         |                
   |          5      2    0.000   1.807     qc      0         |                
   |          6      2    0.250   1.807     qc      0         |                
   |         loc     3    0.000   1.807     pn      0         |                
   |                                                          |                
   | Augmentation charge Rinner = 1.263                       |                
   | Partial core correction Rc = 1.263                       |                
   ------------------------------------------------------------                
   | "3|1.8|4|4|5|30:31:32"                                   |                
   ------------------------------------------------------------                
   |      Author: Chris J. Pickard, Cambridge University      |                
   ============================================================                
 Warning: otfg_output_psp cannot write out meta-GGA pseudopotentials presently.

 Atomic calculation performed for In:
 1s2 2s2 2p6 3s2 3p6 3d10 4s2 4p6 4d10 5s2 5p1

 Converged in 84 iterations to an ae energy of -160093.328 eV

   ============================================================                
   | Pseudopotential Report - Date of generation 30-07-2025   |                
   ------------------------------------------------------------                
   | Element: In Ionic charge: 13.00 Level of theory: RSCAN   |                
   | Atomic Solver: Koelling-Harmon                           |                
   |                                                          |                
   |               Reference Electronic Structure             |                
   |         Orbital         Occupation         Energy        |                
   |            4d             10.000           -0.711        |                
   |            5s              2.000           -0.313        |                
   |            5p              1.000           -0.095        |                
   |                                                          |                
   |                 Pseudopotential Definition               |                
   |        Beta     l      e      Rc     scheme   norm       |                
   |          1      0   -0.313   2.501     qc      0         |                
   |          2      0    0.250   2.501     qc      0         |                
   |          3      1   -0.095   2.501     qc      0         |                
   |          4      1    0.250   2.501     qc      0         |                
   |          5      2   -0.711   2.207     qc      0         |                
   |          6      2    0.250   2.207     qc      0         |                
   |         loc     3    0.000   2.501     pn      0         |                
   |                                                          |                
   | Augmentation charge Rinner = 1.504                       |                
   | Partial core correction Rc = 1.504                       |                
   ------------------------------------------------------------                
   | "3|2.5|2.5|1.5|7|8|9|50:51:42U2.2U2.2"                   |                
   ------------------------------------------------------------                
   |      Author: Chris J. Pickard, Cambridge University      |                
   ============================================================                
 Warning: otfg_output_psp cannot write out meta-GGA pseudopotentials presently.

 Pseudo atomic calculation performed for P 3s2 3p3

 Converged in 23 iterations to a total energy of -208.0292 eV

 Pseudo atomic calculation performed for In 4d10 5s2 5p1

 Converged in 42 iterations to a total energy of -1747.4501 eV
 Calculation parallelised over 108 processes.
 Data is distributed by G-vector(3-way) and k-point(36-way)
 Each process may use up to 16 threads.

 ************************************ Title ************************************
 

 ***************************** General Parameters ******************************
  
 output verbosity                               : normal  (1)
 write checkpoint data to                       : In_Vacancy_Migration_3->60_Singlepoints_7.check
 type of calculation                            : single point energy
 stress calculation                             : off
 density difference calculation                 : off
 electron localisation func (ELF) calculation   : off
 Hirshfeld analysis                             : on
 polarisation (Berry phase) analysis            : off
 molecular orbital projected DOS                : off
 deltaSCF calculation                           : off
 unlimited duration calculation
 timing information                             : on
 memory usage estimate                          : on
 write extra output files                       : on
 write final potential to formatted file        : off
 write final density to formatted file          : off
 write BibTeX reference list                    : on
 write OTFG pseudopotential files               : on
 write electrostatic potential file             : on
 write bands file                               : on
 checkpoint writing                             : off
  
 output         length unit                     : A
 output           mass unit                     : amu
 output           time unit                     : ps
 output         charge unit                     : e
 output           spin unit                     : hbar/2
 output         energy unit                     : eV
 output          force unit                     : eV/A
 output       velocity unit                     : A/ps
 output       pressure unit                     : GPa
 output     inv_length unit                     : 1/A
 output      frequency unit                     : cm-1
 output force constant unit                     : eV/A**2
 output         volume unit                     : A**3
 output   IR intensity unit                     : (D/A)**2/amu
 output         dipole unit                     : D
 output         efield unit                     : eV/A/e
 output        entropy unit                     : J/mol/K
 output    efield chi2 unit                     : pm/V
  
 wavefunctions paging                           : none
 random number generator seed                   :   13352937
 data distribution                              : optimal for this architecture
 optimization strategy                          : balance speed and memory

 *********************** Exchange-Correlation Parameters ***********************
  
 using functional                               : RSCAN
 relativistic treatment                         : Koelling-Harmon
 DFT+D: Semi-empirical dispersion correction    : off

 ************************* Pseudopotential Parameters **************************
  
 pseudopotential representation                 : reciprocal space
 <beta|phi> representation                      : reciprocal space
 spin-orbit coupling                            : off

 **************************** Basis Set Parameters *****************************
  
 plane wave basis set cut-off                   :   900.0000   eV
 size of standard grid                          :     2.0000
 size of   fine   gmax                          :    30.7390   1/A
 finite basis set correction                    : none

 **************************** Electronic Parameters ****************************
  
 number of  electrons                           :  563.0    
 net charge of system                           :  0.000    
 net spin   of system                           :  1.000    
 number of  up  spins                           :  282.0    
 number of down spins                           :  281.0    
 treating system as spin-polarized
 number of bands                                :        338

 ********************* Electronic Minimization Parameters **********************
  
 Method: Treating system as metallic with density mixing treatment of electrons,
         and number of  SD  steps               :          1
         and number of  CG  steps               :          4
  
 total energy / atom convergence tol.           : 0.1000E-07   eV
 eigen-energy convergence tolerance             : 0.2234E-08   eV
 max force / atom convergence tol.              : ignored
 convergence tolerance window                   :          3   cycles
 max. number of SCF cycles                      :        100
 number of fixed-spin iterations                :         10
 smearing scheme                                : Gaussian
 smearing width                                 : 0.2000       eV
 Fermi energy convergence tolerance             : 0.2721E-13   eV
 periodic dipole correction                     : NONE

 ************************** Density Mixing Parameters **************************
  
 density-mixing scheme                          : Pulay
 max. length of mixing history                  :         20
 charge density mixing amplitude                : 0.5000    
   spin density mixing amplitude                :  2.000    
 cut-off energy for mixing                      :  900.0       eV

 *********************** Population Analysis Parameters ************************
  
 Population analysis with cutoff                :  3.000       A
 Population analysis output                     : summary and pdos components

 *******************************************************************************
  

                           -------------------------------
                                      Unit Cell
                           -------------------------------
        Real Lattice(A)                      Reciprocal Lattice(1/A)
    11.8016820    -0.0000080    -0.0000080        0.532397442   0.000000361   0.000000361
    -0.0000080    11.8016820    -0.0000080        0.000000361   0.532397442   0.000000361
    -0.0000080    -0.0000080    11.8016820        0.000000361   0.000000361   0.532397442

                       Lattice parameters(A)       Cell Angles
                    a =     11.801682          alpha =   90.000078
                    b =     11.801682          beta  =   90.000078
                    c =     11.801682          gamma =   90.000078

                       Current cell volume =          1643.734705       A**3
                                   density =             2.768402   AMU/A**3
                                           =             4.597040     g/cm^3

                           -------------------------------
                                     Cell Contents
                           -------------------------------
                         Total number of ions in cell =   63
                      Total number of species in cell =    2
                        Max number of any one species =   32

            xxxxxxxxxxxxxxxxxxxxxxxxxxxxxxxxxxxxxxxxxxxxxxxxxxxxxxxxxxxx
            x  Element    Atom        Fractional coordinates of atoms  x
            x            Number           u          v          w      x
            x----------------------------------------------------------x
            x  P            1         0.124622   0.124622   0.372422   x 
            x  P            2         0.372422   0.124622   0.124622   x 
            x  P            3         0.124622   0.372422   0.124622   x 
            x  P            4         0.501629   0.501629   0.501629   x 
            x  P            5         0.123736   0.123736   0.871616   x 
            x  P            6         0.373119   0.132593   0.616329   x 
            x  P            7         0.132593   0.373119   0.616329   x 
            x  P            8         0.375511   0.375511   0.875185   x 
            x  P            9         0.132593   0.616329   0.373119   x 
            x  P           10         0.373119   0.616329   0.132593   x 
            x  P           11         0.123736   0.871616   0.123736   x 
            x  P           12         0.375511   0.875185   0.375511   x 
            x  P           13         0.129381   0.621942   0.872308   x 
            x  P           14         0.398076   0.616546   0.616546   x 
            x  P           15         0.129381   0.872308   0.621941   x 
            x  P           16         0.374448   0.872469   0.872469   x 
            x  P           17         0.616329   0.132593   0.373119   x 
            x  P           18         0.871616   0.123736   0.123736   x 
            x  P           19         0.616329   0.373119   0.132593   x 
            x  P           20         0.875185   0.375511   0.375511   x 
            x  P           21         0.621942   0.129381   0.872308   x 
            x  P           22         0.872308   0.129381   0.621942   x 
            x  P           23         0.616546   0.398076   0.616546   x 
            x  P           24         0.872469   0.374448   0.872469   x 
            x  P           25         0.616546   0.616546   0.398076   x 
            x  P           26         0.872308   0.621942   0.129381   x 
            x  P           27         0.621942   0.872308   0.129381   x 
            x  P           28         0.872469   0.872469   0.374448   x 
            x  P           29         0.627095   0.627095   0.879746   x 
            x  P           30         0.879746   0.627095   0.627095   x 
            x  P           31         0.627095   0.879746   0.627095   x 
            x  P           32         0.874935   0.874935   0.874935   x 
            x  In           1        -0.000472  -0.000472  -0.000472   x 
            x  In           2         0.248064  -0.002293   0.248064   x 
            x  In           3        -0.002293   0.248064   0.248064   x 
            x  In           4         0.248064   0.248064  -0.002293   x 
            x  In           5        -0.000865  -0.000865   0.500109   x 
            x  In           6         0.251886   0.002415   0.745229   x 
            x  In           7         0.002415   0.251886   0.745229   x 
            x  In           8         0.263118   0.263118   0.472361   x 
            x  In           9        -0.000865   0.500109  -0.000865   x 
            x  In          10         0.263118   0.472361   0.263118   x 
            x  In          11         0.002415   0.745229   0.251886   x 
            x  In          12         0.251886   0.745229   0.002415   x 
            x  In          13         0.001759   0.500356   0.500356   x 
            x  In          14         0.256722   0.498393   0.742457   x 
            x  In          15         0.005203   0.751904   0.751904   x 
            x  In          16         0.256722   0.742457   0.498393   x 
            x  In          17         0.500109  -0.000865  -0.000865   x 
            x  In          18         0.745229   0.002415   0.251886   x 
            x  In          19         0.472361   0.263118   0.263118   x 
            x  In          20         0.745229   0.251886   0.002415   x 
            x  In          21         0.500356   0.001759   0.500356   x 
            x  In          22         0.751904   0.005203   0.751904   x 
            x  In          23         0.498393   0.256722   0.742457   x 
            x  In          24         0.742457   0.256722   0.498393   x 
            x  In          25         0.500356   0.500356   0.001759   x 
            x  In          26         0.742457   0.498393   0.256722   x 
            x  In          27         0.498393   0.742457   0.256722   x 
            x  In          28         0.751904   0.751904   0.005203   x 
            x  In          29         0.751034   0.507546   0.751034   x 
            x  In          30         0.507546   0.751034   0.751034   x 
            x  In          31         0.751034   0.751034   0.507546   x 
            xxxxxxxxxxxxxxxxxxxxxxxxxxxxxxxxxxxxxxxxxxxxxxxxxxxxxxxxxxxx


                         No user defined ionic velocities

                           -------------------------------
                                   Details of Species
                           -------------------------------

                               Mass of species in AMU
                                    P   30.9737600
                                    In  114.8180000

                          Electric Quadrupole Moment (Barn)
                                    P    1.0000000 No Isotope Defined
                                    In    0.7700000 Isotope115

                          Files used for pseudopotentials:
                                    P 3|1.8|4|4|5|30:31:32
                                    In 3|2.5|2.5|1.5|7|8|9|50:51:42U2.2U2.2

                           -------------------------------
                              k-Points For BZ Sampling
                           -------------------------------
                       MP grid size for SCF calculation is  4  4  4
                            with an offset of   0.125  0.125  0.125
                       Number of kpoints used =            36

                           -------------------------------
                               Symmetry and Constraints
                           -------------------------------

                      Maximum deviation from symmetry =  0.00000         ANG

                      Number of symmetry operations   =           1
                      Number of ionic constraints     =           3
                      Point group of crystal =     1: C1, 1, 1
                      Space group of crystal =   160: R3m, R 3 -2"

             Set iprint > 1 for details on symmetry rotations/translations

                         Centre of mass is constrained
             Set iprint > 1 for details of linear ionic constraints

                         Number of cell constraints= 0
                         Cell constraints are:  1 2 3 4 5 6

                         External pressure/stress (GPa)
                          0.00000   0.00000   0.00000
                                    0.00000   0.00000
                                              0.00000
 
+---------------- MEMORY AND SCRATCH DISK ESTIMATES PER PROCESS --------------+
|                                                     Memory          Disk    |
| Baseline code, static data and system overhead      368.0 MB         0.0 MB |
| BLAS internal memory storage                          0.0 MB         0.0 MB |
| Model and support data                             4296.9 MB         0.0 MB |
| Electronic energy minimisation requirements        1299.4 MB         0.0 MB |
| Force calculation requirements                      127.4 MB         0.0 MB |
|                                               ----------------------------- |
| Approx. total storage required per process         5964.3 MB         0.0 MB |
|                                                                             |
| Requirements will fluctuate during execution and may exceed these estimates |
+-----------------------------------------------------------------------------+
Calculating approximate eigenstates for fixed initial Hamiltonian
Cut-off for approx. calculation is   89.988 eV
Improving approx. states at cut-off of  450.000 eV
Resetting cut-off to  900.000 eV
Calculating total energy with cut-off of  900.000 eV.
------------------------------------------------------------------------ <-- SCF
SCF loop      Energy           Fermi           Energy gain       Timer   <-- SCF
                               energy          per atom          (sec)   <-- SCF
------------------------------------------------------------------------ <-- SCF
Initial  -6.12887335E+004  0.00000000E+000                       420.97  <-- SCF
      1  -6.10551439E+004  3.07303489E+000  -3.70777176E+000     858.79  <-- SCF
      2  -6.10555395E+004  3.07199400E+000   6.28011498E-003    1154.53  <-- SCF
      3  -6.11189412E+004  3.20533179E+000   1.00637663E+000    1497.63  <-- SCF
      4  -6.11303953E+004  3.26060795E+000   1.81810704E-001    1973.96  <-- SCF
      5  -6.11360877E+004  3.38555711E+000   9.03560846E-002    2312.50  <-- SCF
      6  -6.11250577E+004  3.58088692E+000  -1.75080324E-001    2644.09  <-- SCF
      7  -6.11238122E+004  3.62284548E+000  -1.97690121E-002    3003.39  <-- SCF
      8  -6.11239069E+004  3.64954908E+000   1.50294004E-003    3360.01  <-- SCF
      9  -6.11246669E+004  3.66114246E+000   1.20627103E-002    3716.65  <-- SCF
     10  -6.11250205E+004  3.89826422E+000   5.61301911E-003    4072.43  <-- SCF
     11  -6.11250370E+004  3.90313300E+000   2.62280701E-004    4430.90  <-- SCF
     12  -6.11250453E+004  3.90249827E+000   1.31665179E-004    4787.61  <-- SCF
     13  -6.11250487E+004  3.90163849E+000   5.43280512E-005    5148.77  <-- SCF
     14  -6.11250511E+004  3.90065042E+000   3.69021054E-005    5510.74  <-- SCF
     15  -6.11250518E+004  3.90035409E+000   1.19791371E-005    5869.44  <-- SCF
     16  -6.11250529E+004  3.89948726E+000   1.79586652E-005    6244.91  <-- SCF
     17  -6.11250532E+004  3.89943327E+000   4.54408236E-006    6609.02  <-- SCF
     18  -6.11250534E+004  3.89981714E+000   2.73337710E-006    6963.14  <-- SCF
     19  -6.11250534E+004  3.89992146E+000   2.45087072E-007    7295.51  <-- SCF
     20  -6.11250534E+004  3.89995507E+000   5.27192567E-008    7569.83  <-- SCF
     21  -6.11250534E+004  3.89997560E+000   2.72466500E-008    7830.84  <-- SCF
     22  -6.11250534E+004  3.89998289E+000   2.41141829E-009    8073.82  <-- SCF
     23  -6.11250534E+004  3.89998412E+000   1.67603097E-009    8315.44  <-- SCF
------------------------------------------------------------------------ <-- SCF
 
Integrated Spin Density     =   -0.131844E-03 hbar/2
Integrated |Spin Density|   =    0.709425E-03 hbar/2
 
Final energy, E             =  -61124.92069214     eV
Final free energy (E-TS)    =  -61125.05342827     eV
(energies not corrected for finite basis set)
 
NB est. 0K energy (E-0.5TS)      =  -61124.98706021     eV
 

 ************************** Forces **************************
 *                                                          *
 *               Cartesian components (eV/A)                *
 * -------------------------------------------------------- *
 *                         x            y            z      *
 *                                                          *
 * P               1     -0.08525     -0.08525      0.06701 *
 * P               2      0.06700     -0.08525     -0.08525 *
 * P               3     -0.08525      0.06701     -0.08525 *
 * P               4      0.00203      0.00203      0.00203 *
 * P               5     -0.00296     -0.00295     -0.03933 *
 * P               6      0.00969      0.01163      0.02738 *
 * P               7      0.01163      0.00969      0.02738 *
 * P               8      0.02776      0.02776     -0.03850 *
 * P               9      0.01163      0.02738      0.00969 *
 * P              10      0.00969      0.02737      0.01163 *
 * P              11     -0.00295     -0.03933     -0.00296 *
 * P              12      0.02776     -0.03850      0.02776 *
 * P              13      0.05836      0.01680     -0.04023 *
 * P              14     -0.03156      0.01399      0.01400 *
 * P              15      0.05836     -0.04023      0.01681 *
 * P              16      0.01196      0.00967      0.00967 *
 * P              17      0.02738      0.01163      0.00969 *
 * P              18     -0.03933     -0.00296     -0.00296 *
 * P              19      0.02738      0.00969      0.01163 *
 * P              20     -0.03850      0.02776      0.02776 *
 * P              21      0.01680      0.05836     -0.04023 *
 * P              22     -0.04023      0.05836      0.01680 *
 * P              23      0.01400     -0.03155      0.01400 *
 * P              24      0.00967      0.01196      0.00967 *
 * P              25      0.01399      0.01399     -0.03156 *
 * P              26     -0.04023      0.01680      0.05836 *
 * P              27      0.01680     -0.04023      0.05836 *
 * P              28      0.00967      0.00967      0.01196 *
 * P              29     -0.00572     -0.00572      0.03411 *
 * P              30      0.03412     -0.00572     -0.00572 *
 * P              31     -0.00572      0.03411     -0.00572 *
 * P              32     -0.00273     -0.00273     -0.00273 *
 * In              1      0.03079      0.03079      0.03079 *
 * In              2     -0.02271      0.02119     -0.02271 *
 * In              3      0.02119     -0.02271     -0.02271 *
 * In              4     -0.02271     -0.02271      0.02120 *
 * In              5      0.05251      0.05251     -0.16674 *
 * In              6      0.04267      0.04838      0.01114 *
 * In              7      0.04838      0.04268      0.01115 *
 * In              8      0.01959      0.01958     -0.02516 *
 * In              9      0.05251     -0.16674      0.05251 *
 * In             10      0.01959     -0.02515      0.01959 *
 * In             11      0.04838      0.01115      0.04268 *
 * In             12      0.04267      0.01115      0.04838 *
 * In             13      0.06709     -0.01320     -0.01319 *
 * In             14     -0.07573     -0.16288      0.06493 *
 * In             15     -0.03471      0.00636      0.00636 *
 * In             16     -0.07574      0.06492     -0.16288 *
 * In             17     -0.16674      0.05251      0.05251 *
 * In             18      0.01115      0.04838      0.04268 *
 * In             19     -0.02516      0.01959      0.01959 *
 * In             20      0.01115      0.04268      0.04838 *
 * In             21     -0.01320      0.06710     -0.01320 *
 * In             22      0.00636     -0.03471      0.00636 *
 * In             23     -0.16288     -0.07573      0.06493 *
 * In             24      0.06492     -0.07574     -0.16288 *
 * In             25     -0.01320     -0.01319      0.06709 *
 * In             26      0.06492     -0.16288     -0.07574 *
 * In             27     -0.16287      0.06492     -0.07573 *
 * In             28      0.00636      0.00636     -0.03471 *
 * In             29      0.06667     -0.05321      0.06667 *
 * In             30     -0.05321      0.06667      0.06667 *
 * In             31      0.06667      0.06668     -0.05321 *
 *                                                          *
 ************************************************************

 Pseudo atomic calculation performed for P 3s2 3p3

 Converged in 23 iterations to a total energy of -208.0292 eV

 Pseudo atomic calculation performed for In 4d10 5s2 5p1

 Converged in 42 iterations to a total energy of -1747.4501 eV
Charge spilling parameter for spin component 1 = 0.20%
Charge spilling parameter for spin component 2 = 0.20%

                   Orbital Populations                  
  ---------------------------------------------------------------
     Ion    Atom   Orbital              Up        Down      Spin
  ---------------------------------------------------------------
      P     1      S                    0.871     0.871     0.000
      P     1      Px                   0.647     0.647     0.000
      P     1      Py                   0.647     0.647     0.000
      P     1      Pz                   0.665     0.665     0.000
      P     2      S                    0.871     0.871    -0.000
      P     2      Px                   0.665     0.665     0.000
      P     2      Py                   0.647     0.647     0.000
      P     2      Pz                   0.647     0.647     0.000
      P     3      S                    0.871     0.871    -0.000
      P     3      Px                   0.647     0.647     0.000
      P     3      Py                   0.665     0.665    -0.000
      P     3      Pz                   0.647     0.647     0.000
      P     4      S                    0.909     0.909    -0.000
      P     4      Px                   0.534     0.534    -0.000
      P     4      Py                   0.534     0.534    -0.000
      P     4      Pz                   0.534     0.534    -0.000
      P     5      S                    0.869     0.869     0.000
      P     5      Px                   0.656     0.656    -0.000
      P     5      Py                   0.656     0.656    -0.000
      P     5      Pz                   0.655     0.655    -0.000
      P     6      S                    0.875     0.875     0.000
      P     6      Px                   0.660     0.660    -0.000
      P     6      Py                   0.643     0.643    -0.000
      P     6      Pz                   0.644     0.644     0.000
      P     7      S                    0.875     0.875    -0.000
      P     7      Px                   0.643     0.643     0.000
      P     7      Py                   0.660     0.660     0.000
      P     7      Pz                   0.644     0.644     0.000
      P     8      S                    0.868     0.868    -0.000
      P     8      Px                   0.657     0.657     0.000
      P     8      Py                   0.657     0.657     0.000
      P     8      Pz                   0.653     0.653    -0.000
      P     9      S                    0.875     0.875     0.000
      P     9      Px                   0.643     0.643    -0.000
      P     9      Py                   0.644     0.644    -0.000
      P     9      Pz                   0.660     0.660    -0.000
      P    10      S                    0.875     0.875    -0.000
      P    10      Px                   0.660     0.660    -0.000
      P    10      Py                   0.644     0.644     0.000
      P    10      Pz                   0.643     0.643    -0.000
      P    11      S                    0.869     0.869     0.000
      P    11      Px                   0.656     0.656    -0.000
      P    11      Py                   0.655     0.655    -0.000
      P    11      Pz                   0.656     0.656    -0.000
      P    12      S                    0.868     0.868     0.000
      P    12      Px                   0.657     0.657     0.000
      P    12      Py                   0.653     0.653     0.000
      P    12      Pz                   0.657     0.657     0.000
      P    13      S                    0.872     0.872    -0.000
      P    13      Px                   0.651     0.651     0.000
      P    13      Py                   0.658     0.658    -0.000
      P    13      Pz                   0.651     0.651     0.000
      P    14      S                    0.871     0.871    -0.000
      P    14      Px                   0.620     0.620     0.000
      P    14      Py                   0.628     0.628    -0.000
      P    14      Pz                   0.628     0.628    -0.000
      P    15      S                    0.872     0.872    -0.000
      P    15      Px                   0.651     0.651    -0.000
      P    15      Py                   0.651     0.651     0.000
      P    15      Pz                   0.658     0.658     0.000
      P    16      S                    0.874     0.874    -0.000
      P    16      Px                   0.658     0.658    -0.000
      P    16      Py                   0.649     0.649     0.000
      P    16      Pz                   0.649     0.649     0.000
      P    17      S                    0.875     0.875     0.000
      P    17      Px                   0.644     0.644     0.000
      P    17      Py                   0.643     0.643    -0.000
      P    17      Pz                   0.660     0.660    -0.000
      P    18      S                    0.869     0.869    -0.000
      P    18      Px                   0.655     0.655    -0.000
      P    18      Py                   0.656     0.656    -0.000
      P    18      Pz                   0.656     0.656    -0.000
      P    19      S                    0.875     0.875    -0.000
      P    19      Px                   0.644     0.644     0.000
      P    19      Py                   0.660     0.660     0.000
      P    19      Pz                   0.643     0.643    -0.000
      P    20      S                    0.868     0.868     0.000
      P    20      Px                   0.653     0.653     0.000
      P    20      Py                   0.657     0.657     0.000
      P    20      Pz                   0.657     0.657     0.000
      P    21      S                    0.872     0.872     0.000
      P    21      Px                   0.658     0.658    -0.000
      P    21      Py                   0.651     0.651     0.000
      P    21      Pz                   0.651     0.651    -0.000
      P    22      S                    0.872     0.872     0.000
      P    22      Px                   0.651     0.651    -0.000
      P    22      Py                   0.651     0.651     0.000
      P    22      Pz                   0.658     0.658    -0.000
      P    23      S                    0.871     0.871    -0.000
      P    23      Px                   0.628     0.628    -0.000
      P    23      Py                   0.620     0.620     0.000
      P    23      Pz                   0.628     0.628     0.000
      P    24      S                    0.874     0.874    -0.000
      P    24      Px                   0.649     0.649    -0.000
      P    24      Py                   0.658     0.658    -0.000
      P    24      Pz                   0.649     0.649    -0.000
      P    25      S                    0.871     0.871     0.000
      P    25      Px                   0.628     0.628    -0.000
      P    25      Py                   0.628     0.628     0.000
      P    25      Pz                   0.620     0.620     0.000
      P    26      S                    0.872     0.872     0.000
      P    26      Px                   0.651     0.651     0.000
      P    26      Py                   0.658     0.658    -0.000
      P    26      Pz                   0.651     0.651     0.000
      P    27      S                    0.872     0.872     0.000
      P    27      Px                   0.658     0.658    -0.000
      P    27      Py                   0.651     0.651     0.000
      P    27      Pz                   0.651     0.651     0.000
      P    28      S                    0.874     0.874    -0.000
      P    28      Px                   0.649     0.649     0.000
      P    28      Py                   0.649     0.649     0.000
      P    28      Pz                   0.658     0.658     0.000
      P    29      S                    0.867     0.867    -0.000
      P    29      Px                   0.657     0.657     0.000
      P    29      Py                   0.657     0.657     0.000
      P    29      Pz                   0.656     0.656     0.000
      P    30      S                    0.867     0.867    -0.000
      P    30      Px                   0.656     0.656    -0.000
      P    30      Py                   0.657     0.657     0.000
      P    30      Pz                   0.657     0.657     0.000
      P    31      S                    0.867     0.867    -0.000
      P    31      Px                   0.657     0.657     0.000
      P    31      Py                   0.656     0.656    -0.000
      P    31      Pz                   0.657     0.657     0.000
      P    32      S                    0.868     0.868     0.000
      P    32      Px                   0.656     0.656    -0.000
      P    32      Py                   0.656     0.656     0.000
      P    32      Pz                   0.656     0.656    -0.000
     In     1      Dzz                  1.000     1.000     0.000
     In     1      Dzy                  0.999     0.999    -0.000
     In     1      Dzx                  0.998     0.999    -0.000
     In     1      Dxx-yy               1.000     1.000     0.000
     In     1      Dxy                  0.999     0.999     0.000
     In     1      S                    0.701     0.701     0.000
     In     1      Px                   0.239     0.239    -0.000
     In     1      Py                   0.239     0.239    -0.000
     In     1      Pz                   0.239     0.239    -0.000
     In     1      S                   -0.253    -0.253    -0.000
     In     2      Dzz                  1.000     1.000     0.000
     In     2      Dzy                  0.998     0.998    -0.000
     In     2      Dzx                  0.998     0.998     0.000
     In     2      Dxx-yy               1.000     1.000    -0.000
     In     2      Dxy                  0.998     0.998    -0.000
     In     2      S                    0.708     0.708     0.000
     In     2      Px                   0.241     0.241     0.000
     In     2      Py                   0.238     0.238     0.000
     In     2      Pz                   0.241     0.241     0.000
     In     2      S                   -0.249    -0.249     0.000
     In     3      Dzz                  1.000     1.000     0.000
     In     3      Dzy                  0.998     0.998     0.000
     In     3      Dzx                  0.998     0.998    -0.000
     In     3      Dxx-yy               1.000     1.000    -0.000
     In     3      Dxy                  0.998     0.998    -0.000
     In     3      S                    0.708     0.708     0.000
     In     3      Px                   0.238     0.238     0.000
     In     3      Py                   0.241     0.241     0.000
     In     3      Pz                   0.241     0.241     0.000
     In     3      S                   -0.249    -0.249    -0.000
     In     4      Dzz                  1.000     1.000    -0.000
     In     4      Dzy                  0.998     0.998    -0.000
     In     4      Dzx                  0.998     0.998    -0.000
     In     4      Dxx-yy               1.000     1.000     0.000
     In     4      Dxy                  0.998     0.998     0.000
     In     4      S                    0.708     0.708    -0.000
     In     4      Px                   0.241     0.241     0.000
     In     4      Py                   0.241     0.241    -0.000
     In     4      Pz                   0.238     0.238     0.000
     In     4      S                   -0.249    -0.249    -0.000
     In     5      Dzz                  1.000     1.000     0.000
     In     5      Dzy                  0.999     0.999     0.000
     In     5      Dzx                  0.999     0.999     0.000
     In     5      Dxx-yy               1.000     1.000    -0.000
     In     5      Dxy                  0.999     0.999    -0.000
     In     5      S                    0.706     0.706    -0.000
     In     5      Px                   0.239     0.239     0.000
     In     5      Py                   0.239     0.239    -0.000
     In     5      Pz                   0.232     0.232     0.000
     In     5      S                   -0.249    -0.249     0.000
     In     6      Dzz                  1.000     1.000    -0.000
     In     6      Dzy                  0.999     0.999    -0.000
     In     6      Dzx                  0.999     0.999     0.000
     In     6      Dxx-yy               1.000     1.000    -0.000
     In     6      Dxy                  0.999     0.999     0.000
     In     6      S                    0.712     0.712     0.000
     In     6      Px                   0.238     0.238    -0.000
     In     6      Py                   0.240     0.240     0.000
     In     6      Pz                   0.237     0.237     0.000
     In     6      S                   -0.246    -0.246    -0.000
     In     7      Dzz                  1.000     1.000    -0.000
     In     7      Dzy                  0.999     0.999     0.000
     In     7      Dzx                  0.999     0.999     0.000
     In     7      Dxx-yy               1.000     1.000     0.000
     In     7      Dxy                  0.999     0.999    -0.000
     In     7      S                    0.712     0.712     0.000
     In     7      Px                   0.240     0.240     0.000
     In     7      Py                   0.238     0.238    -0.000
     In     7      Pz                   0.237     0.237     0.000
     In     7      S                   -0.246    -0.247     0.000
     In     8      Dzz                  1.000     1.000     0.000
     In     8      Dzy                  0.999     0.999    -0.000
     In     8      Dzx                  0.999     0.999    -0.000
     In     8      Dxx-yy               1.000     1.000     0.000
     In     8      Dxy                  0.999     0.999     0.000
     In     8      S                    0.722     0.722    -0.000
     In     8      Px                   0.237     0.237    -0.000
     In     8      Py                   0.237     0.237    -0.000
     In     8      Pz                   0.249     0.249     0.000
     In     8      S                   -0.205    -0.205     0.000
     In     9      Dzz                  1.000     1.000    -0.000
     In     9      Dzy                  0.999     0.999     0.000
     In     9      Dzx                  0.999     0.999     0.000
     In     9      Dxx-yy               1.000     1.000     0.000
     In     9      Dxy                  0.999     0.999     0.000
     In     9      S                    0.706     0.706    -0.000
     In     9      Px                   0.239     0.239    -0.000
     In     9      Py                   0.232     0.232     0.000
     In     9      Pz                   0.239     0.239    -0.000
     In     9      S                   -0.249    -0.249     0.000
     In    10      Dzz                  1.000     1.000     0.000
     In    10      Dzy                  0.999     0.999    -0.000
     In    10      Dzx                  0.999     0.999     0.000
     In    10      Dxx-yy               1.000     1.000     0.000
     In    10      Dxy                  0.999     0.999    -0.000
     In    10      S                    0.722     0.723    -0.000
     In    10      Px                   0.237     0.237    -0.000
     In    10      Py                   0.249     0.249     0.000
     In    10      Pz                   0.237     0.237    -0.000
     In    10      S                   -0.205    -0.205     0.000
     In    11      Dzz                  1.000     1.000     0.000
     In    11      Dzy                  0.999     0.999    -0.000
     In    11      Dzx                  0.999     0.999     0.000
     In    11      Dxx-yy               1.000     1.000    -0.000
     In    11      Dxy                  0.999     0.999    -0.000
     In    11      S                    0.712     0.712    -0.000
     In    11      Px                   0.240     0.240    -0.000
     In    11      Py                   0.237     0.237     0.000
     In    11      Pz                   0.238     0.238    -0.000
     In    11      S                   -0.247    -0.247     0.000
     In    12      Dzz                  1.000     1.000    -0.000
     In    12      Dzy                  0.999     0.999    -0.000
     In    12      Dzx                  0.999     0.999     0.000
     In    12      Dxx-yy               1.000     1.000    -0.000
     In    12      Dxy                  0.999     0.999    -0.000
     In    12      S                    0.712     0.712    -0.000
     In    12      Px                   0.238     0.238    -0.000
     In    12      Py                   0.237     0.237     0.000
     In    12      Pz                   0.240     0.240     0.000
     In    12      S                   -0.246    -0.246     0.000
     In    13      Dzz                  1.000     1.000     0.000
     In    13      Dzy                  0.999     0.999     0.000
     In    13      Dzx                  0.998     0.998     0.000
     In    13      Dxx-yy               1.000     1.000     0.000
     In    13      Dxy                  0.998     0.998     0.000
     In    13      S                    0.708     0.708    -0.000
     In    13      Px                   0.239     0.239     0.000
     In    13      Py                   0.241     0.241     0.000
     In    13      Pz                   0.241     0.241     0.000
     In    13      S                   -0.248    -0.248     0.000
     In    14      Dzz                  1.000     1.000    -0.000
     In    14      Dzy                  0.999     0.999    -0.000
     In    14      Dzx                  0.999     0.999    -0.000
     In    14      Dxx-yy               1.000     1.000    -0.000
     In    14      Dxy                  0.999     0.999    -0.000
     In    14      S                    0.701     0.701     0.000
     In    14      Px                   0.241     0.241     0.000
     In    14      Py                   0.231     0.231    -0.000
     In    14      Pz                   0.242     0.242     0.000
     In    14      S                   -0.242    -0.242     0.000
     In    15      Dzz                  1.000     1.000     0.000
     In    15      Dzy                  0.998     0.998     0.000
     In    15      Dzx                  0.998     0.998     0.000
     In    15      Dxx-yy               1.000     1.000     0.000
     In    15      Dxy                  0.998     0.998     0.000
     In    15      S                    0.707     0.707    -0.000
     In    15      Px                   0.242     0.242    -0.000
     In    15      Py                   0.240     0.240    -0.000
     In    15      Pz                   0.240     0.240    -0.000
     In    15      S                   -0.247    -0.248     0.000
     In    16      Dzz                  1.000     1.000    -0.000
     In    16      Dzy                  0.999     0.999    -0.000
     In    16      Dzx                  0.999     0.999    -0.000
     In    16      Dxx-yy               1.000     1.000    -0.000
     In    16      Dxy                  0.999     0.999    -0.000
     In    16      S                    0.701     0.701    -0.000
     In    16      Px                   0.241     0.241     0.000
     In    16      Py                   0.242     0.242     0.000
     In    16      Pz                   0.231     0.231    -0.000
     In    16      S                   -0.242    -0.242     0.000
     In    17      Dzz                  1.000     1.000    -0.000
     In    17      Dzy                  0.999     0.999    -0.000
     In    17      Dzx                  0.999     0.999     0.000
     In    17      Dxx-yy               1.000     1.000     0.000
     In    17      Dxy                  0.999     0.999     0.000
     In    17      S                    0.706     0.706    -0.000
     In    17      Px                   0.232     0.232     0.000
     In    17      Py                   0.239     0.239    -0.000
     In    17      Pz                   0.239     0.239     0.000
     In    17      S                   -0.249    -0.249     0.000
     In    18      Dzz                  1.000     1.000    -0.000
     In    18      Dzy                  0.999     0.999     0.000
     In    18      Dzx                  0.999     0.999    -0.000
     In    18      Dxx-yy               1.000     1.000    -0.000
     In    18      Dxy                  0.999     0.999     0.000
     In    18      S                    0.712     0.712     0.000
     In    18      Px                   0.237     0.237     0.000
     In    18      Py                   0.240     0.240     0.000
     In    18      Pz                   0.238     0.238    -0.000
     In    18      S                   -0.246    -0.246     0.000
     In    19      Dzz                  1.000     1.000     0.000
     In    19      Dzy                  0.999     0.999    -0.000
     In    19      Dzx                  0.999     0.999    -0.000
     In    19      Dxx-yy               1.000     1.000     0.000
     In    19      Dxy                  0.999     0.999    -0.000
     In    19      S                    0.722     0.722    -0.000
     In    19      Px                   0.249     0.249     0.000
     In    19      Py                   0.237     0.237    -0.000
     In    19      Pz                   0.237     0.237    -0.000
     In    19      S                   -0.205    -0.205     0.000
     In    20      Dzz                  1.000     1.000    -0.000
     In    20      Dzy                  0.999     0.999    -0.000
     In    20      Dzx                  0.999     0.999     0.000
     In    20      Dxx-yy               1.000     1.000    -0.000
     In    20      Dxy                  0.999     0.999    -0.000
     In    20      S                    0.712     0.712    -0.000
     In    20      Px                   0.237     0.237     0.000
     In    20      Py                   0.238     0.238    -0.000
     In    20      Pz                   0.240     0.240     0.000
     In    20      S                   -0.246    -0.246     0.000
     In    21      Dzz                  1.000     1.000    -0.000
     In    21      Dzy                  0.998     0.998     0.000
     In    21      Dzx                  0.999     0.999     0.000
     In    21      Dxx-yy               1.000     1.000    -0.000
     In    21      Dxy                  0.998     0.998     0.000
     In    21      S                    0.708     0.708    -0.000
     In    21      Px                   0.241     0.241    -0.000
     In    21      Py                   0.239     0.239    -0.000
     In    21      Pz                   0.241     0.241     0.000
     In    21      S                   -0.248    -0.248     0.000
     In    22      Dzz                  1.000     1.000    -0.000
     In    22      Dzy                  0.998     0.998     0.000
     In    22      Dzx                  0.998     0.998     0.000
     In    22      Dxx-yy               1.000     1.000     0.000
     In    22      Dxy                  0.998     0.998     0.000
     In    22      S                    0.707     0.707    -0.000
     In    22      Px                   0.240     0.240    -0.000
     In    22      Py                   0.242     0.242    -0.000
     In    22      Pz                   0.240     0.240    -0.000
     In    22      S                   -0.247    -0.247     0.000
     In    23      Dzz                  1.000     1.000    -0.000
     In    23      Dzy                  0.999     0.999    -0.000
     In    23      Dzx                  0.999     0.999    -0.000
     In    23      Dxx-yy               1.000     1.000    -0.000
     In    23      Dxy                  0.999     0.999    -0.000
     In    23      S                    0.701     0.701     0.000
     In    23      Px                   0.231     0.231    -0.000
     In    23      Py                   0.241     0.241     0.000
     In    23      Pz                   0.242     0.242     0.000
     In    23      S                   -0.242    -0.242    -0.000
     In    24      Dzz                  1.000     1.000    -0.000
     In    24      Dzy                  0.999     0.999    -0.000
     In    24      Dzx                  0.999     0.999    -0.000
     In    24      Dxx-yy               1.000     1.000    -0.000
     In    24      Dxy                  0.999     0.999    -0.000
     In    24      S                    0.701     0.701    -0.000
     In    24      Px                   0.242     0.242     0.000
     In    24      Py                   0.241     0.241     0.000
     In    24      Pz                   0.231     0.231    -0.000
     In    24      S                   -0.242    -0.242    -0.000
     In    25      Dzz                  1.000     1.000     0.000
     In    25      Dzy                  0.998     0.998    -0.000
     In    25      Dzx                  0.998     0.998    -0.000
     In    25      Dxx-yy               1.000     1.000     0.000
     In    25      Dxy                  0.999     0.999     0.000
     In    25      S                    0.708     0.708     0.000
     In    25      Px                   0.241     0.241    -0.000
     In    25      Py                   0.241     0.241     0.000
     In    25      Pz                   0.239     0.239     0.000
     In    25      S                   -0.248    -0.248     0.000
     In    26      Dzz                  1.000     1.000    -0.000
     In    26      Dzy                  0.999     0.999     0.000
     In    26      Dzx                  0.999     0.999    -0.000
     In    26      Dxx-yy               1.000     1.000    -0.000
     In    26      Dxy                  0.999     0.999    -0.000
     In    26      S                    0.701     0.701     0.000
     In    26      Px                   0.242     0.242     0.000
     In    26      Py                   0.231     0.231    -0.000
     In    26      Pz                   0.241     0.241     0.000
     In    26      S                   -0.242    -0.242    -0.000
     In    27      Dzz                  1.000     1.000    -0.000
     In    27      Dzy                  0.999     0.999    -0.000
     In    27      Dzx                  0.999     0.999    -0.000
     In    27      Dxx-yy               1.000     1.000    -0.000
     In    27      Dxy                  0.999     0.999    -0.000
     In    27      S                    0.701     0.701     0.000
     In    27      Px                   0.231     0.231    -0.000
     In    27      Py                   0.242     0.242     0.000
     In    27      Pz                   0.241     0.241     0.000
     In    27      S                   -0.242    -0.242     0.000
     In    28      Dzz                  1.000     1.000     0.000
     In    28      Dzy                  0.998     0.998     0.000
     In    28      Dzx                  0.998     0.998     0.000
     In    28      Dxx-yy               1.000     1.000    -0.000
     In    28      Dxy                  0.998     0.998    -0.000
     In    28      S                    0.707     0.707    -0.000
     In    28      Px                   0.240     0.240    -0.000
     In    28      Py                   0.240     0.240    -0.000
     In    28      Pz                   0.242     0.242    -0.000
     In    28      S                   -0.248    -0.248     0.000
     In    29      Dzz                  1.000     1.000    -0.000
     In    29      Dzy                  0.999     0.999    -0.000
     In    29      Dzx                  0.998     0.998    -0.000
     In    29      Dxx-yy               1.000     1.000    -0.000
     In    29      Dxy                  0.999     0.999    -0.000
     In    29      S                    0.704     0.704     0.000
     In    29      Px                   0.240     0.240    -0.000
     In    29      Py                   0.239     0.239    -0.000
     In    29      Pz                   0.240     0.240    -0.000
     In    29      S                   -0.251    -0.251     0.000
     In    30      Dzz                  1.000     1.000     0.000
     In    30      Dzy                  0.998     0.998    -0.000
     In    30      Dzx                  0.999     0.999    -0.000
     In    30      Dxx-yy               1.000     1.000    -0.000
     In    30      Dxy                  0.999     0.999     0.000
     In    30      S                    0.704     0.704     0.000
     In    30      Px                   0.239     0.239     0.000
     In    30      Py                   0.240     0.240    -0.000
     In    30      Pz                   0.240     0.240    -0.000
     In    30      S                   -0.251    -0.251     0.000
     In    31      Dzz                  1.000     1.000     0.000
     In    31      Dzy                  0.999     0.999     0.000
     In    31      Dzx                  0.999     0.999    -0.000
     In    31      Dxx-yy               1.000     1.000    -0.000
     In    31      Dxy                  0.998     0.998    -0.000
     In    31      S                    0.704     0.704     0.000
     In    31      Px                   0.240     0.240    -0.000
     In    31      Py                   0.240     0.240     0.000
     In    31      Pz                   0.239     0.239    -0.000
     In    31      S                   -0.251    -0.251     0.000
  ---------------------------------------------------------------
                           Total:     281.500   281.500    -0.000
  ---------------------------------------------------------------

     Atomic Populations (Mulliken)
     -----------------------------
Species          Ion Spin      s       p       d       f      Total   Charge(e)   Spin(hbar/2)
==============================================================================================
  P               1   up:     0.871   1.959   0.000   0.000   2.830    -0.661        0.000
                  1   dn:     0.871   1.959   0.000   0.000   2.830
  P               2   up:     0.871   1.959   0.000   0.000   2.830    -0.661        0.000
                  2   dn:     0.871   1.959   0.000   0.000   2.830
  P               3   up:     0.871   1.959   0.000   0.000   2.830    -0.661        0.000
                  3   dn:     0.871   1.959   0.000   0.000   2.830
  P               4   up:     0.909   1.602   0.000   0.000   2.512    -0.023       -0.000
                  4   dn:     0.909   1.602   0.000   0.000   2.512
  P               5   up:     0.869   1.967   0.000   0.000   2.835    -0.671       -0.000
                  5   dn:     0.869   1.967   0.000   0.000   2.835
  P               6   up:     0.875   1.947   0.000   0.000   2.822    -0.644       -0.000
                  6   dn:     0.875   1.947   0.000   0.000   2.822
  P               7   up:     0.875   1.947   0.000   0.000   2.822    -0.644        0.000
                  7   dn:     0.875   1.947   0.000   0.000   2.822
  P               8   up:     0.868   1.967   0.000   0.000   2.835    -0.670        0.000
                  8   dn:     0.868   1.967   0.000   0.000   2.835
  P               9   up:     0.875   1.947   0.000   0.000   2.822    -0.644       -0.000
                  9   dn:     0.875   1.947   0.000   0.000   2.822
  P              10   up:     0.875   1.947   0.000   0.000   2.822    -0.644       -0.000
                 10   dn:     0.875   1.947   0.000   0.000   2.822
  P              11   up:     0.869   1.967   0.000   0.000   2.835    -0.671       -0.000
                 11   dn:     0.869   1.967   0.000   0.000   2.835
  P              12   up:     0.868   1.967   0.000   0.000   2.835    -0.670        0.000
                 12   dn:     0.868   1.967   0.000   0.000   2.835
  P              13   up:     0.872   1.959   0.000   0.000   2.831    -0.662        0.000
                 13   dn:     0.872   1.959   0.000   0.000   2.831
  P              14   up:     0.871   1.876   0.000   0.000   2.747    -0.494       -0.000
                 14   dn:     0.871   1.876   0.000   0.000   2.747
  P              15   up:     0.872   1.959   0.000   0.000   2.831    -0.662       -0.000
                 15   dn:     0.872   1.959   0.000   0.000   2.831
  P              16   up:     0.874   1.956   0.000   0.000   2.830    -0.660       -0.000
                 16   dn:     0.874   1.956   0.000   0.000   2.830
  P              17   up:     0.875   1.947   0.000   0.000   2.822    -0.644       -0.000
                 17   dn:     0.875   1.947   0.000   0.000   2.822
  P              18   up:     0.869   1.967   0.000   0.000   2.835    -0.671       -0.000
                 18   dn:     0.869   1.967   0.000   0.000   2.835
  P              19   up:     0.875   1.947   0.000   0.000   2.822    -0.644       -0.000
                 19   dn:     0.875   1.947   0.000   0.000   2.822
  P              20   up:     0.868   1.967   0.000   0.000   2.835    -0.670        0.000
                 20   dn:     0.868   1.967   0.000   0.000   2.835
  P              21   up:     0.872   1.959   0.000   0.000   2.831    -0.662       -0.000
                 21   dn:     0.872   1.959   0.000   0.000   2.831
  P              22   up:     0.872   1.959   0.000   0.000   2.831    -0.662        0.000
                 22   dn:     0.872   1.959   0.000   0.000   2.831
  P              23   up:     0.871   1.876   0.000   0.000   2.747    -0.495       -0.000
                 23   dn:     0.871   1.876   0.000   0.000   2.747
  P              24   up:     0.874   1.956   0.000   0.000   2.830    -0.660       -0.000
                 24   dn:     0.874   1.956   0.000   0.000   2.830
  P              25   up:     0.871   1.876   0.000   0.000   2.747    -0.494        0.000
                 25   dn:     0.871   1.876   0.000   0.000   2.747
  P              26   up:     0.872   1.959   0.000   0.000   2.831    -0.662        0.000
                 26   dn:     0.872   1.959   0.000   0.000   2.831
  P              27   up:     0.872   1.959   0.000   0.000   2.831    -0.662        0.000
                 27   dn:     0.872   1.959   0.000   0.000   2.831
  P              28   up:     0.874   1.956   0.000   0.000   2.830    -0.660        0.000
                 28   dn:     0.874   1.956   0.000   0.000   2.830
  P              29   up:     0.867   1.970   0.000   0.000   2.837    -0.673        0.000
                 29   dn:     0.867   1.970   0.000   0.000   2.837
  P              30   up:     0.867   1.970   0.000   0.000   2.837    -0.673        0.000
                 30   dn:     0.867   1.970   0.000   0.000   2.837
  P              31   up:     0.867   1.970   0.000   0.000   2.837    -0.673        0.000
                 31   dn:     0.867   1.970   0.000   0.000   2.837
  P              32   up:     0.868   1.968   0.000   0.000   2.836    -0.671        0.000
                 32   dn:     0.868   1.968   0.000   0.000   2.836
  In              1   up:     0.448   0.717   4.995   0.000   6.160     0.680       -0.000
                  1   dn:     0.448   0.717   4.995   0.000   6.160
  In              2   up:     0.459   0.720   4.995   0.000   6.174     0.653        0.000
                  2   dn:     0.459   0.720   4.995   0.000   6.174
  In              3   up:     0.459   0.720   4.995   0.000   6.174     0.653        0.000
                  3   dn:     0.459   0.720   4.995   0.000   6.174
  In              4   up:     0.459   0.720   4.995   0.000   6.174     0.653       -0.000
                  4   dn:     0.459   0.720   4.995   0.000   6.174
  In              5   up:     0.457   0.709   4.995   0.000   6.162     0.677       -0.000
                  5   dn:     0.457   0.709   4.995   0.000   6.162
  In              6   up:     0.465   0.716   4.995   0.000   6.176     0.648        0.000
                  6   dn:     0.465   0.716   4.995   0.000   6.176
  In              7   up:     0.465   0.716   4.995   0.000   6.176     0.648        0.000
                  7   dn:     0.465   0.716   4.995   0.000   6.176
  In              8   up:     0.517   0.723   4.996   0.000   6.236     0.527       -0.000
                  8   dn:     0.517   0.723   4.996   0.000   6.236
  In              9   up:     0.457   0.709   4.995   0.000   6.162     0.677        0.000
                  9   dn:     0.457   0.709   4.995   0.000   6.162
  In             10   up:     0.517   0.723   4.996   0.000   6.236     0.527       -0.000
                 10   dn:     0.517   0.723   4.996   0.000   6.236
  In             11   up:     0.465   0.716   4.995   0.000   6.176     0.648       -0.000
                 11   dn:     0.465   0.716   4.995   0.000   6.176
  In             12   up:     0.465   0.716   4.995   0.000   6.176     0.648       -0.000
                 12   dn:     0.465   0.716   4.995   0.000   6.176
  In             13   up:     0.460   0.720   4.995   0.000   6.175     0.650        0.000
                 13   dn:     0.460   0.720   4.995   0.000   6.175
  In             14   up:     0.459   0.714   4.995   0.000   6.168     0.664        0.000
                 14   dn:     0.459   0.714   4.995   0.000   6.168
  In             15   up:     0.460   0.721   4.995   0.000   6.175     0.650       -0.000
                 15   dn:     0.460   0.721   4.995   0.000   6.175
  In             16   up:     0.459   0.714   4.995   0.000   6.168     0.664       -0.000
                 16   dn:     0.459   0.714   4.995   0.000   6.168
  In             17   up:     0.457   0.709   4.995   0.000   6.162     0.677       -0.000
                 17   dn:     0.457   0.709   4.995   0.000   6.162
  In             18   up:     0.465   0.716   4.995   0.000   6.176     0.648        0.000
                 18   dn:     0.465   0.716   4.995   0.000   6.176
  In             19   up:     0.517   0.723   4.996   0.000   6.236     0.527       -0.000
                 19   dn:     0.517   0.723   4.996   0.000   6.236
  In             20   up:     0.465   0.716   4.995   0.000   6.176     0.648       -0.000
                 20   dn:     0.465   0.716   4.995   0.000   6.176
  In             21   up:     0.460   0.720   4.995   0.000   6.175     0.650       -0.000
                 21   dn:     0.460   0.720   4.995   0.000   6.175
  In             22   up:     0.460   0.721   4.995   0.000   6.175     0.650        0.000
                 22   dn:     0.460   0.721   4.995   0.000   6.175
  In             23   up:     0.459   0.714   4.995   0.000   6.168     0.664       -0.000
                 23   dn:     0.459   0.714   4.995   0.000   6.168
  In             24   up:     0.459   0.714   4.995   0.000   6.168     0.664       -0.000
                 24   dn:     0.459   0.714   4.995   0.000   6.168
  In             25   up:     0.460   0.720   4.995   0.000   6.175     0.650        0.000
                 25   dn:     0.460   0.720   4.995   0.000   6.175
  In             26   up:     0.459   0.714   4.995   0.000   6.168     0.664       -0.000
                 26   dn:     0.459   0.714   4.995   0.000   6.168
  In             27   up:     0.459   0.714   4.995   0.000   6.168     0.664        0.000
                 27   dn:     0.459   0.714   4.995   0.000   6.168
  In             28   up:     0.460   0.721   4.995   0.000   6.175     0.650       -0.000
                 28   dn:     0.460   0.721   4.995   0.000   6.175
  In             29   up:     0.453   0.719   4.995   0.000   6.167     0.667       -0.000
                 29   dn:     0.453   0.719   4.995   0.000   6.167
  In             30   up:     0.453   0.719   4.995   0.000   6.167     0.667        0.000
                 30   dn:     0.453   0.719   4.995   0.000   6.167
  In             31   up:     0.453   0.719   4.995   0.000   6.167     0.667       -0.000
                 31   dn:     0.453   0.719   4.995   0.000   6.167
==============================================================================================

                 Bond                   Population        Spin       Length (A)
================================================================================
              P 4  -- P 23                   0.53         0.00          2.27424
              P 4  -- P 14                   0.53         0.00          2.27424
              P 4  -- P 25                   0.53         0.00          2.27424
              P 30 -- In 29                  0.66         0.00          2.53721
              P 30 -- In 31                  0.66         0.00          2.53721
              P 31 -- In 30                  0.66         0.00          2.53721
              P 29 -- In 30                  0.66         0.00          2.53721
              P 31 -- In 31                  0.66        -0.00          2.53721
              P 29 -- In 29                  0.66        -0.00          2.53721
              P 32 -- In 1                   0.64        -0.00          2.54682
              P 9  -- In 13                  0.65         0.00          2.55191
              P 19 -- In 25                  0.65        -0.00          2.55191
              P 10 -- In 25                  0.65        -0.00          2.55191
              P 7  -- In 13                  0.65         0.00          2.55191
              P 17 -- In 21                  0.65         0.00          2.55191
              P 6  -- In 21                  0.65         0.00          2.55191
              P 21 -- In 22                  0.65         0.00          2.55330
              P 13 -- In 15                  0.65        -0.00          2.55330
              P 27 -- In 28                  0.65         0.00          2.55330
              P 26 -- In 28                  0.65         0.00          2.55330
              P 22 -- In 22                  0.65         0.00          2.55330
              P 15 -- In 15                  0.65         0.00          2.55330
              P 1  -- In 3                   0.65        -0.00          2.55338
              P 1  -- In 2                   0.65        -0.00          2.55338
              P 2  -- In 2                   0.65        -0.00          2.55338
              P 3  -- In 4                   0.65         0.00          2.55338
              P 3  -- In 3                   0.65        -0.00          2.55338
              P 2  -- In 4                   0.65         0.00          2.55338
              P 18 -- In 3                   0.64         0.00          2.55346
              P 11 -- In 2                   0.64         0.00          2.55346
              P 5  -- In 4                   0.64         0.00          2.55346
              P 20 -- In 26                  0.66        -0.00          2.55384
              P 20 -- In 24                  0.66        -0.00          2.55384
              P 12 -- In 27                  0.66         0.00          2.55384
              P 12 -- In 16                  0.66         0.00          2.55384
              P 8  -- In 23                  0.66        -0.00          2.55384
              P 8  -- In 14                  0.66         0.00          2.55384
              P 29 -- In 28                  0.63        -0.00          2.55566
              P 30 -- In 15                  0.63        -0.00          2.55566
              P 31 -- In 22                  0.63        -0.00          2.55566
              P 10 -- In 27                  0.67         0.00          2.55880
              P 7  -- In 14                  0.67         0.00          2.55880
              P 6  -- In 23                  0.67        -0.00          2.55880
              P 19 -- In 26                  0.67         0.00          2.55880
              P 17 -- In 24                  0.67         0.00          2.55880
              P 9  -- In 16                  0.67         0.00          2.55880
              P 31 -- In 21                  0.65         0.00          2.55889
              P 29 -- In 25                  0.65         0.00          2.55889
              P 30 -- In 13                  0.65         0.00          2.55890
              P 11 -- In 11                  0.65        -0.00          2.56167
              P 5  -- In 6                   0.65         0.00          2.56167
              P 18 -- In 20                  0.65         0.00          2.56167
              P 18 -- In 18                  0.65         0.00          2.56167
              P 11 -- In 12                  0.65         0.00          2.56167
              P 5  -- In 7                   0.65         0.00          2.56167
              P 22 -- In 7                   0.63         0.00          2.56222
              P 26 -- In 11                  0.63        -0.00          2.56222
              P 27 -- In 18                  0.63         0.00          2.56222
              P 21 -- In 20                  0.63         0.00          2.56222
              P 13 -- In 12                  0.63         0.00          2.56222
              P 15 -- In 6                   0.63        -0.00          2.56222
              P 12 -- In 21                  0.65        -0.00          2.56380
              P 20 -- In 13                  0.65        -0.00          2.56380
              P 8  -- In 25                  0.65        -0.00          2.56380
              P 24 -- In 29                  0.66        -0.00          2.56420
              P 28 -- In 31                  0.66         0.00          2.56420
              P 16 -- In 30                  0.66        -0.00          2.56421
              P 18 -- In 1                   0.65        -0.00          2.56444
              P 11 -- In 1                   0.65        -0.00          2.56444
              P 5  -- In 1                   0.65        -0.00          2.56444
              P 32 -- In 22                  0.65        -0.00          2.56514
              P 32 -- In 15                  0.65         0.00          2.56514
              P 32 -- In 28                  0.65        -0.00          2.56514
              P 12 -- In 2                   0.64         0.00          2.57204
              P 20 -- In 3                   0.64         0.00          2.57204
              P 8  -- In 4                   0.64        -0.00          2.57204
              P 3  -- In 9                   0.64        -0.00          2.58018
              P 2  -- In 17                  0.64        -0.00          2.58018
              P 1  -- In 5                   0.64         0.00          2.58018
              P 24 -- In 9                   0.62         0.00          2.58235
              P 16 -- In 17                  0.62         0.00          2.58235
              P 28 -- In 5                   0.62         0.00          2.58235
              P 15 -- In 5                   0.63         0.00          2.58272
              P 27 -- In 17                  0.63        -0.00          2.58272
              P 26 -- In 9                   0.63         0.00          2.58272
              P 22 -- In 5                   0.63        -0.00          2.58272
              P 21 -- In 17                  0.63        -0.00          2.58272
              P 13 -- In 9                   0.63         0.00          2.58272
              P 16 -- In 12                  0.60         0.00          2.58825
              P 16 -- In 6                   0.60         0.00          2.58825
              P 28 -- In 18                  0.60        -0.00          2.58825
              P 24 -- In 20                  0.60         0.00          2.58825
              P 28 -- In 11                  0.60        -0.00          2.58825
              P 24 -- In 7                   0.60         0.00          2.58825
              P 14 -- In 30                  0.60         0.00          2.58986
              P 25 -- In 31                  0.60        -0.00          2.58986
              P 23 -- In 29                  0.60         0.00          2.58986
              P 10 -- In 12                  0.61        -0.00          2.59258
              P 7  -- In 7                   0.61        -0.00          2.59258
              P 17 -- In 18                  0.61         0.00          2.59259
              P 6  -- In 6                   0.61         0.00          2.59259
              P 19 -- In 20                  0.61        -0.00          2.59259
              P 9  -- In 11                  0.61        -0.00          2.59259
              P 15 -- In 16                  0.65         0.00          2.59480
              P 27 -- In 27                  0.65         0.00          2.59480
              P 26 -- In 26                  0.65         0.00          2.59480
              P 22 -- In 24                  0.65         0.00          2.59480
              P 21 -- In 23                  0.65         0.00          2.59480
              P 13 -- In 14                  0.65         0.00          2.59480
              P 3  -- In 10                  0.60        -0.00          2.59503
              P 2  -- In 19                  0.60        -0.00          2.59503
              P 1  -- In 8                   0.60        -0.00          2.59503
              P 23 -- In 24                  0.57        -0.00          2.63351
              P 14 -- In 16                  0.57        -0.00          2.63351
              P 25 -- In 27                  0.57         0.00          2.63351
              P 25 -- In 26                  0.57         0.00          2.63351
              P 23 -- In 23                  0.57         0.00          2.63351
              P 14 -- In 14                  0.57         0.00          2.63351
              P 17 -- In 19                  0.59         0.00          2.63534
              P 9  -- In 10                  0.59         0.00          2.63534
              P 6  -- In 8                   0.59         0.00          2.63534
              P 19 -- In 19                  0.59         0.00          2.63534
              P 7  -- In 8                   0.59         0.00          2.63534
              P 10 -- In 10                  0.59        -0.00          2.63534
================================================================================

 Hirshfeld supercell size:           2           2           2
Standard grid dimensions: 240 240 240
Fine grid dimensions:     240 240 240


     Hirshfeld Analysis
     ------------------
Species   Ion     Hirshfeld Charge (e)  Spin (hbar/2)
===================================================
  P        1                -0.24       -0.00
  P        2                -0.24       -0.00
  P        3                -0.24       -0.00
  P        4                 0.04       -0.00
  P        5                -0.24       -0.00
  P        6                -0.24       -0.00
  P        7                -0.24       -0.00
  P        8                -0.24        0.00
  P        9                -0.24       -0.00
  P       10                -0.24       -0.00
  P       11                -0.24       -0.00
  P       12                -0.24        0.00
  P       13                -0.24       -0.00
  P       14                -0.15        0.00
  P       15                -0.24       -0.00
  P       16                -0.24       -0.00
  P       17                -0.24       -0.00
  P       18                -0.24       -0.00
  P       19                -0.24       -0.00
  P       20                -0.24        0.00
  P       21                -0.24       -0.00
  P       22                -0.24       -0.00
  P       23                -0.15        0.00
  P       24                -0.24       -0.00
  P       25                -0.15        0.00
  P       26                -0.24       -0.00
  P       27                -0.24       -0.00
  P       28                -0.24       -0.00
  P       29                -0.24       -0.00
  P       30                -0.24       -0.00
  P       31                -0.24       -0.00
  P       32                -0.24       -0.00
  In       1                 0.24       -0.00
  In       2                 0.23        0.00
  In       3                 0.23        0.00
  In       4                 0.23        0.00
  In       5                 0.24       -0.00
  In       6                 0.24       -0.00
  In       7                 0.24       -0.00
  In       8                 0.17       -0.00
  In       9                 0.24       -0.00
  In      10                 0.17       -0.00
  In      11                 0.24       -0.00
  In      12                 0.24       -0.00
  In      13                 0.23        0.00
  In      14                 0.24        0.00
  In      15                 0.23       -0.00
  In      16                 0.24        0.00
  In      17                 0.24       -0.00
  In      18                 0.24       -0.00
  In      19                 0.17       -0.00
  In      20                 0.24       -0.00
  In      21                 0.23        0.00
  In      22                 0.23       -0.00
  In      23                 0.24        0.00
  In      24                 0.24        0.00
  In      25                 0.23        0.00
  In      26                 0.24        0.00
  In      27                 0.24        0.00
  In      28                 0.23       -0.00
  In      29                 0.23        0.00
  In      30                 0.23        0.00
  In      31                 0.23        0.00
===================================================

 
 A BibTeX formatted list of references used in this run has been written to 
 In_Vacancy_Migration_3->60_Singlepoints_7.bib
 
Initialisation time =     30.52 s
Calculation time    =   8562.07 s
Finalisation time   =    157.54 s
Total time          =   8750.13 s
Peak Memory Use     = 9590664 kB
 
Overall parallel efficiency rating: Terrible (33%)
 
Data was distributed by:-
G-vector (3-way); efficiency rating: Poor (36%)
k-point (36-way); efficiency rating: Good (78%)
