 +-------------------------------------------------+
 |                                                 |
 |      CCC   AA    SSS  TTTTT  EEEEE  PPPP        |
 |     C     A  A  S       T    E      P   P       |
 |     C     AAAA   SS     T    EEE    PPPP        |
 |     C     A  A     S    T    E      P           |
 |      CCC  A  A  SSS     T    EEEEE  P           |
 |                                                 |
 +-------------------------------------------------+
 |                                                 |
 | Welcome to Academic Release CASTEP version 24.1 |
 | Ab Initio Total Energy Program                  |
 |                                                 |
 | Authors:                                        |
 | M. Segall, M. Probert, C. Pickard, P. Hasnip,   |
 | S. Clark, K. Refson, J. R. Yates,               |
 | A. Bartok-Partay, M. Payne                      |
 |                                                 |
 | Contributors:                                   |
 | P. Lindan, P. Haynes, J. White, V. Milman,      |
 | N. Govind, M. Gibson, P. Tulip, V. Cocula,      |
 | B. Montanari, D. Quigley, M. Glover,            |
 | L. Bernasconi, A. Perlov, M. Plummer,           |
 | E. McNellis, J. Meyer, J. Gale, D. Jochym       |
 | J. Aarons, B. Walker, R. Gillen, D. Jones       |
 | T. Green, I. J. Bush, C. J. Armstrong,          |
 | E. J. Higgins, E. L. Brown, M. S. McFly,        |
 | J. Wilkins, B-C. Shih, P. J. P. Byrne,          |
 | R. J. Maurer, J. C. Womack, J. Dziedzic,        |
 | L. LeBlanc, T. K. Stenczel, J. Kermode,         |
 | S. Sturniolo, B. Shi, B. Durham, M. Evans,      |
 | M. J. Smith, A. Tamerus, Z. Hawkhead,           |
 | V. Ravindran, T. Hollins, S. A. Joyce,          |
 | R. T. Strong, A. M. Reilly, S. J. Donaldson     |
 |                                                 |
 | Copyright (c) 2000 - 2023                       |
 |                                                 |
 |     Distributed under license from Cambridge    |
 |     Enterprise for academic use only.           |
 |                                                 |
 | Please cite                                     |
 |                                                 |
 |     "First principles methods using CASTEP"     |
 |                                                 |
 |         Zeitschrift fuer Kristallographie       |
 |           220(5-6) pp. 567-570 (2005)           |
 |                                                 |
 | S. J. Clark, M. D. Segall, C. J. Pickard,       |
 | P. J. Hasnip, M. J. Probert, K. Refson,         |
 | M. C. Payne                                     |
 |                                                 |
 |       in all publications arising from          |
 |              your use of CASTEP                 |
 |                                                 |
 +-------------------------------------------------+
 |                                                 |
 |              http://www.castep.org              |
 |                                                 |
 +-------------------------------------------------+



 Compiled for  GNU 11.2.0 on 04-04-2024 18:39:17
 from code version 6355fd106 Castep241_branch Thu Mar 7 17:56:19 2024 +0000
 Compiler: GNU Fortran 11.2.0; Optimisation: FAST
 Comms   : MPI VERSION : CRAY MPICH version 8.1.23.14 (ANL base 3.4a2)
 MATHLIBS: default (LAPACK version 3.10.1)
 FFT Lib : fftw3 version commercial-fftw-3.3.10-sse2-avx-avx2-avx2_128
 Fundamental constants values: CODATA 2018

 Run started: Tue, 29 Apr 2025 13:52:50 +0100

 Atomic calculation performed for P: 1s2 2s2 2p6 3s2 3p3

 Converged in 47 iterations to an ae energy of -9309.074 eV

   ============================================================                
   | Pseudopotential Report - Date of generation 29-04-2025   |                
   ------------------------------------------------------------                
   | Element: P Ionic charge:  5.00 Level of theory: RSCAN    |                
   | Atomic Solver: Koelling-Harmon                           |                
   |                                                          |                
   |               Reference Electronic Structure             |                
   |         Orbital         Occupation         Energy        |                
   |            3s              2.000           -0.535        |                
   |            3p              3.000           -0.209        |                
   |                                                          |                
   |                 Pseudopotential Definition               |                
   |        Beta     l      e      Rc     scheme   norm       |                
   |          1      0   -0.535   1.807     qc      0         |                
   |          2      0    0.250   1.807     qc      0         |                
   |          3      1   -0.209   1.807     qc      0         |                
   |          4      1    0.250   1.807     qc      0         |                
   |          5      2    0.000   1.807     qc      0         |                
   |          6      2    0.250   1.807     qc      0         |                
   |         loc     3    0.000   1.807     pn      0         |                
   |                                                          |                
   | Augmentation charge Rinner = 1.263                       |                
   | Partial core correction Rc = 1.263                       |                
   ------------------------------------------------------------                
   | "3|1.8|4|4|5|30:31:32"                                   |                
   ------------------------------------------------------------                
   |      Author: Chris J. Pickard, Cambridge University      |                
   ============================================================                
 Warning: otfg_output_psp cannot write out meta-GGA pseudopotentials presently.

 Atomic calculation performed for In:
 1s2 2s2 2p6 3s2 3p6 3d10 4s2 4p6 4d10 5s2 5p1

 Converged in 84 iterations to an ae energy of -160093.328 eV

   ============================================================                
   | Pseudopotential Report - Date of generation 29-04-2025   |                
   ------------------------------------------------------------                
   | Element: In Ionic charge: 13.00 Level of theory: RSCAN   |                
   | Atomic Solver: Koelling-Harmon                           |                
   |                                                          |                
   |               Reference Electronic Structure             |                
   |         Orbital         Occupation         Energy        |                
   |            4d             10.000           -0.711        |                
   |            5s              2.000           -0.313        |                
   |            5p              1.000           -0.095        |                
   |                                                          |                
   |                 Pseudopotential Definition               |                
   |        Beta     l      e      Rc     scheme   norm       |                
   |          1      0   -0.313   2.501     qc      0         |                
   |          2      0    0.250   2.501     qc      0         |                
   |          3      1   -0.095   2.501     qc      0         |                
   |          4      1    0.250   2.501     qc      0         |                
   |          5      2   -0.711   2.207     qc      0         |                
   |          6      2    0.250   2.207     qc      0         |                
   |         loc     3    0.000   2.501     pn      0         |                
   |                                                          |                
   | Augmentation charge Rinner = 1.504                       |                
   | Partial core correction Rc = 1.504                       |                
   ------------------------------------------------------------                
   | "3|2.5|2.5|1.5|7|8|9|50:51:42U2.2U2.2"                   |                
   ------------------------------------------------------------                
   |      Author: Chris J. Pickard, Cambridge University      |                
   ============================================================                
 Warning: otfg_output_psp cannot write out meta-GGA pseudopotentials presently.

 Pseudo atomic calculation performed for P 3s2 3p3

 Converged in 23 iterations to a total energy of -208.0292 eV

 Pseudo atomic calculation performed for In 4d10 5s2 5p1

 Converged in 42 iterations to a total energy of -1747.4501 eV
 Calculation parallelised over 108 processes.
 Data is distributed by G-vector(3-way) and k-point(36-way)
 Each process may use up to 16 threads.

 ************************************ Title ************************************
 

 ***************************** General Parameters ******************************
  
 output verbosity                               : normal  (1)
 write checkpoint data to                       : In_Vacancy_Migration_3->60_Singlepoints_7.check
 type of calculation                            : single point energy
 stress calculation                             : off
 density difference calculation                 : off
 electron localisation func (ELF) calculation   : off
 Hirshfeld analysis                             : on
 polarisation (Berry phase) analysis            : off
 molecular orbital projected DOS                : off
 deltaSCF calculation                           : off
 unlimited duration calculation
 timing information                             : on
 memory usage estimate                          : on
 write extra output files                       : on
 write final potential to formatted file        : off
 write final density to formatted file          : off
 write BibTeX reference list                    : on
 write OTFG pseudopotential files               : on
 write electrostatic potential file             : on
 write bands file                               : on
 checkpoint writing                             : off
  
 output         length unit                     : A
 output           mass unit                     : amu
 output           time unit                     : ps
 output         charge unit                     : e
 output           spin unit                     : hbar/2
 output         energy unit                     : eV
 output          force unit                     : eV/A
 output       velocity unit                     : A/ps
 output       pressure unit                     : GPa
 output     inv_length unit                     : 1/A
 output      frequency unit                     : cm-1
 output force constant unit                     : eV/A**2
 output         volume unit                     : A**3
 output   IR intensity unit                     : (D/A)**2/amu
 output         dipole unit                     : D
 output         efield unit                     : eV/A/e
 output        entropy unit                     : J/mol/K
 output    efield chi2 unit                     : pm/V
  
 wavefunctions paging                           : none
 random number generator seed                   :  135250506
 data distribution                              : optimal for this architecture
 optimization strategy                          : balance speed and memory

 *********************** Exchange-Correlation Parameters ***********************
  
 using functional                               : RSCAN
 relativistic treatment                         : Koelling-Harmon
 DFT+D: Semi-empirical dispersion correction    : off

 ************************* Pseudopotential Parameters **************************
  
 pseudopotential representation                 : reciprocal space
 <beta|phi> representation                      : reciprocal space
 spin-orbit coupling                            : off

 **************************** Basis Set Parameters *****************************
  
 plane wave basis set cut-off                   :   900.0000   eV
 size of standard grid                          :     2.0000
 size of   fine   gmax                          :    30.7390   1/A
 finite basis set correction                    : none

 **************************** Electronic Parameters ****************************
  
 number of  electrons                           :  563.0    
 net charge of system                           :  0.000    
 net spin   of system                           :  1.000    
 number of  up  spins                           :  282.0    
 number of down spins                           :  281.0    
 treating system as spin-polarized
 number of bands                                :        338

 ********************* Electronic Minimization Parameters **********************
  
 Method: Treating system as metallic with density mixing treatment of electrons,
         and number of  SD  steps               :          1
         and number of  CG  steps               :          4
  
 total energy / atom convergence tol.           : 0.1000E-07   eV
 eigen-energy convergence tolerance             : 0.2234E-08   eV
 max force / atom convergence tol.              : ignored
 convergence tolerance window                   :          3   cycles
 max. number of SCF cycles                      :        100
 number of fixed-spin iterations                :         10
 smearing scheme                                : Gaussian
 smearing width                                 : 0.2000       eV
 Fermi energy convergence tolerance             : 0.2721E-13   eV
 periodic dipole correction                     : NONE

 ************************** Density Mixing Parameters **************************
  
 density-mixing scheme                          : Pulay
 max. length of mixing history                  :         20
 charge density mixing amplitude                : 0.5000    
   spin density mixing amplitude                :  2.000    
 cut-off energy for mixing                      :  900.0       eV

 *********************** Population Analysis Parameters ************************
  
 Population analysis with cutoff                :  3.000       A
 Population analysis output                     : summary and pdos components

 *******************************************************************************
  

                           -------------------------------
                                      Unit Cell
                           -------------------------------
        Real Lattice(A)                      Reciprocal Lattice(1/A)
    11.8016820    -0.0000080    -0.0000080        0.532397442   0.000000361   0.000000361
    -0.0000080    11.8016820    -0.0000080        0.000000361   0.532397442   0.000000361
    -0.0000080    -0.0000080    11.8016820        0.000000361   0.000000361   0.532397442

                       Lattice parameters(A)       Cell Angles
                    a =     11.801682          alpha =   90.000078
                    b =     11.801682          beta  =   90.000078
                    c =     11.801682          gamma =   90.000078

                       Current cell volume =          1643.734705       A**3
                                   density =             2.768402   AMU/A**3
                                           =             4.597040     g/cm^3

                           -------------------------------
                                     Cell Contents
                           -------------------------------
                         Total number of ions in cell =   63
                      Total number of species in cell =    2
                        Max number of any one species =   32

            xxxxxxxxxxxxxxxxxxxxxxxxxxxxxxxxxxxxxxxxxxxxxxxxxxxxxxxxxxxx
            x  Element    Atom        Fractional coordinates of atoms  x
            x            Number           u          v          w      x
            x----------------------------------------------------------x
            x  P            1         0.124419   0.124419   0.372337   x 
            x  P            2         0.372337   0.124419   0.124419   x 
            x  P            3         0.124419   0.372337   0.124419   x 
            x  P            4         0.502124   0.502124   0.502124   x 
            x  P            5         0.123671   0.123671   0.871589   x 
            x  P            6         0.373098   0.132511   0.616286   x 
            x  P            7         0.132511   0.373098   0.616286   x 
            x  P            8         0.375483   0.375483   0.875093   x 
            x  P            9         0.132511   0.616286   0.373098   x 
            x  P           10         0.373098   0.616286   0.132511   x 
            x  P           11         0.123671   0.871589   0.123671   x 
            x  P           12         0.375483   0.875093   0.375483   x 
            x  P           13         0.129473   0.621967   0.872326   x 
            x  P           14         0.398290   0.616637   0.616637   x 
            x  P           15         0.129473   0.872326   0.621967   x 
            x  P           16         0.374449   0.872622   0.872622   x 
            x  P           17         0.616286   0.132511   0.373098   x 
            x  P           18         0.871589   0.123671   0.123671   x 
            x  P           19         0.616286   0.373098   0.132511   x 
            x  P           20         0.875093   0.375483   0.375483   x 
            x  P           21         0.621967   0.129473   0.872326   x 
            x  P           22         0.872326   0.129473   0.621967   x 
            x  P           23         0.616637   0.398290   0.616637   x 
            x  P           24         0.872622   0.374448   0.872622   x 
            x  P           25         0.616637   0.616637   0.398290   x 
            x  P           26         0.872326   0.621967   0.129473   x 
            x  P           27         0.621967   0.872326   0.129473   x 
            x  P           28         0.872622   0.872622   0.374448   x 
            x  P           29         0.627170   0.627170   0.879747   x 
            x  P           30         0.879747   0.627170   0.627170   x 
            x  P           31         0.627170   0.879747   0.627170   x 
            x  P           32         0.874877   0.874877   0.874877   x 
            x  In           1        -0.000557  -0.000557  -0.000557   x 
            x  In           2         0.247984  -0.002358   0.247984   x 
            x  In           3        -0.002358   0.247984   0.247984   x 
            x  In           4         0.247984   0.247984  -0.002358   x 
            x  In           5        -0.000876  -0.000876   0.500283   x 
            x  In           6         0.251915   0.002415   0.745273   x 
            x  In           7         0.002415   0.251915   0.745273   x 
            x  In           8         0.262878   0.262878   0.472333   x 
            x  In           9        -0.000876   0.500283  -0.000876   x 
            x  In          10         0.262878   0.472333   0.262878   x 
            x  In          11         0.002415   0.745273   0.251915   x 
            x  In          12         0.251915   0.745273   0.002415   x 
            x  In          13         0.001585   0.500356   0.500356   x 
            x  In          14         0.256714   0.498416   0.742346   x 
            x  In          15         0.005322   0.751935   0.751935   x 
            x  In          16         0.256714   0.742346   0.498416   x 
            x  In          17         0.500283  -0.000876  -0.000876   x 
            x  In          18         0.745273   0.002415   0.251915   x 
            x  In          19         0.472333   0.262878   0.262878   x 
            x  In          20         0.745273   0.251915   0.002415   x 
            x  In          21         0.500356   0.001585   0.500356   x 
            x  In          22         0.751935   0.005322   0.751935   x 
            x  In          23         0.498416   0.256714   0.742346   x 
            x  In          24         0.742346   0.256714   0.498416   x 
            x  In          25         0.500356   0.500356   0.001585   x 
            x  In          26         0.742346   0.498416   0.256714   x 
            x  In          27         0.498416   0.742346   0.256714   x 
            x  In          28         0.751935   0.751935   0.005322   x 
            x  In          29         0.751211   0.507431   0.751211   x 
            x  In          30         0.507431   0.751211   0.751211   x 
            x  In          31         0.751211   0.751211   0.507431   x 
            xxxxxxxxxxxxxxxxxxxxxxxxxxxxxxxxxxxxxxxxxxxxxxxxxxxxxxxxxxxx


                         No user defined ionic velocities

                           -------------------------------
                                   Details of Species
                           -------------------------------

                               Mass of species in AMU
                                    P   30.9737600
                                    In  114.8180000

                          Electric Quadrupole Moment (Barn)
                                    P    1.0000000 No Isotope Defined
                                    In    0.7700000 Isotope115

                          Files used for pseudopotentials:
                                    P 3|1.8|4|4|5|30:31:32
                                    In 3|2.5|2.5|1.5|7|8|9|50:51:42U2.2U2.2

                           -------------------------------
                              k-Points For BZ Sampling
                           -------------------------------
                       MP grid size for SCF calculation is  4  4  4
                            with an offset of   0.125  0.125  0.125
                       Number of kpoints used =            36

                           -------------------------------
                               Symmetry and Constraints
                           -------------------------------

                      Maximum deviation from symmetry =  0.00000         ANG

                      Number of symmetry operations   =           1
                      Number of ionic constraints     =           3
                      Point group of crystal =     1: C1, 1, 1
                      Space group of crystal =   160: R3m, R 3 -2"

             Set iprint > 1 for details on symmetry rotations/translations

                         Centre of mass is constrained
             Set iprint > 1 for details of linear ionic constraints

                         Number of cell constraints= 0
                         Cell constraints are:  1 2 3 4 5 6

                         External pressure/stress (GPa)
                          0.00000   0.00000   0.00000
                                    0.00000   0.00000
                                              0.00000
 
+---------------- MEMORY AND SCRATCH DISK ESTIMATES PER PROCESS --------------+
|                                                     Memory          Disk    |
| Baseline code, static data and system overhead      368.0 MB         0.0 MB |
| BLAS internal memory storage                          0.0 MB         0.0 MB |
| Model and support data                             4296.9 MB         0.0 MB |
| Electronic energy minimisation requirements        1299.4 MB         0.0 MB |
| Force calculation requirements                      127.4 MB         0.0 MB |
|                                               ----------------------------- |
| Approx. total storage required per process         5964.3 MB         0.0 MB |
|                                                                             |
| Requirements will fluctuate during execution and may exceed these estimates |
+-----------------------------------------------------------------------------+
Calculating approximate eigenstates for fixed initial Hamiltonian
Cut-off for approx. calculation is   89.988 eV
Improving approx. states at cut-off of  450.000 eV
Resetting cut-off to  900.000 eV
Calculating total energy with cut-off of  900.000 eV.
------------------------------------------------------------------------ <-- SCF
SCF loop      Energy           Fermi           Energy gain       Timer   <-- SCF
                               energy          per atom          (sec)   <-- SCF
------------------------------------------------------------------------ <-- SCF
Initial  -6.12898670E+004  0.00000000E+000                       415.03  <-- SCF
      1  -6.10551470E+004  3.07482238E+000  -3.72571412E+000     862.70  <-- SCF
      2  -6.10555347E+004  3.07407819E+000   6.15319765E-003    1172.71  <-- SCF
      3  -6.11189372E+004  3.20768442E+000   1.00638846E+000    1514.32  <-- SCF
      4  -6.11303841E+004  3.26320542E+000   1.81697398E-001    1996.80  <-- SCF
      5  -6.11359487E+004  3.39128018E+000   8.83276898E-002    2346.64  <-- SCF
      6  -6.11250542E+004  3.58385981E+000  -1.72929752E-001    2686.62  <-- SCF
      7  -6.11238082E+004  3.62582550E+000  -1.97770642E-002    3036.78  <-- SCF
      8  -6.11238959E+004  3.65201882E+000   1.39213009E-003    3402.98  <-- SCF
      9  -6.11246614E+004  3.66379030E+000   1.21508521E-002    3747.10  <-- SCF
     10  -6.11250194E+004  3.90273678E+000   5.68205649E-003    4086.10  <-- SCF
     11  -6.11250362E+004  3.90755580E+000   2.66420528E-004    4433.99  <-- SCF
     12  -6.11250446E+004  3.90689698E+000   1.33792488E-004    4788.54  <-- SCF
     13  -6.11250480E+004  3.90601810E+000   5.42089171E-005    5145.25  <-- SCF
     14  -6.11250504E+004  3.90499916E+000   3.73860148E-005    5499.82  <-- SCF
     15  -6.11250511E+004  3.90469540E+000   1.18955461E-005    5857.16  <-- SCF
     16  -6.11250522E+004  3.90381951E+000   1.78879225E-005    6208.90  <-- SCF
     17  -6.11250525E+004  3.90376082E+000   4.56757017E-006    6566.75  <-- SCF
     18  -6.11250527E+004  3.90414344E+000   2.77338363E-006    6909.05  <-- SCF
     19  -6.11250527E+004  3.90424861E+000   2.51670399E-007    7237.38  <-- SCF
     20  -6.11250527E+004  3.90428316E+000   5.32104970E-008    7498.80  <-- SCF
     21  -6.11250527E+004  3.90430371E+000   2.72321151E-008    7754.06  <-- SCF
     22  -6.11250527E+004  3.90431129E+000   2.52691181E-009    7998.11  <-- SCF
     23  -6.11250527E+004  3.90431272E+000   1.70411868E-009    8241.32  <-- SCF
------------------------------------------------------------------------ <-- SCF
 
Integrated Spin Density     =   -0.134309E-03 hbar/2
Integrated |Spin Density|   =    0.711090E-03 hbar/2
 
Final energy, E             =  -61124.91973909     eV
Final free energy (E-TS)    =  -61125.05272320     eV
(energies not corrected for finite basis set)
 
NB est. 0K energy (E-0.5TS)      =  -61124.98623115     eV
 

 ************************** Forces **************************
 *                                                          *
 *               Cartesian components (eV/A)                *
 * -------------------------------------------------------- *
 *                         x            y            z      *
 *                                                          *
 * P               1     -0.07787     -0.07787      0.06741 *
 * P               2      0.06741     -0.07786     -0.07786 *
 * P               3     -0.07786      0.06741     -0.07786 *
 * P               4     -0.03164     -0.03164     -0.03165 *
 * P               5     -0.00315     -0.00315     -0.04085 *
 * P               6      0.01303      0.01332      0.02619 *
 * P               7      0.01333      0.01303      0.02619 *
 * P               8      0.02466      0.02466     -0.03850 *
 * P               9      0.01332      0.02619      0.01303 *
 * P              10      0.01303      0.02619      0.01332 *
 * P              11     -0.00315     -0.04085     -0.00316 *
 * P              12      0.02466     -0.03850      0.02466 *
 * P              13      0.05720      0.01746     -0.04408 *
 * P              14     -0.04671      0.02967      0.02967 *
 * P              15      0.05721     -0.04409      0.01745 *
 * P              16      0.01139      0.00569      0.00569 *
 * P              17      0.02619      0.01332      0.01303 *
 * P              18     -0.04085     -0.00315     -0.00315 *
 * P              19      0.02619      0.01303      0.01332 *
 * P              20     -0.03850      0.02466      0.02466 *
 * P              21      0.01745      0.05721     -0.04408 *
 * P              22     -0.04408      0.05721      0.01746 *
 * P              23      0.02967     -0.04670      0.02967 *
 * P              24      0.00569      0.01139      0.00569 *
 * P              25      0.02968      0.02968     -0.04670 *
 * P              26     -0.04409      0.01746      0.05720 *
 * P              27      0.01745     -0.04408      0.05721 *
 * P              28      0.00570      0.00569      0.01139 *
 * P              29     -0.00716     -0.00715      0.03434 *
 * P              30      0.03434     -0.00715     -0.00715 *
 * P              31     -0.00716      0.03434     -0.00715 *
 * P              32     -0.00129     -0.00128     -0.00128 *
 * In              1      0.03198      0.03198      0.03197 *
 * In              2     -0.01832      0.01676     -0.01832 *
 * In              3      0.01676     -0.01832     -0.01832 *
 * In              4     -0.01832     -0.01832      0.01676 *
 * In              5      0.05371      0.05371     -0.16868 *
 * In              6      0.04345      0.05185      0.01063 *
 * In              7      0.05185      0.04345      0.01063 *
 * In              8      0.02423      0.02423     -0.02714 *
 * In              9      0.05371     -0.16868      0.05370 *
 * In             10      0.02423     -0.02714      0.02423 *
 * In             11      0.05185      0.01063      0.04346 *
 * In             12      0.04345      0.01063      0.05185 *
 * In             13      0.07144     -0.01255     -0.01255 *
 * In             14     -0.07280     -0.16768      0.06606 *
 * In             15     -0.03919      0.00451      0.00452 *
 * In             16     -0.07280      0.06606     -0.16767 *
 * In             17     -0.16867      0.05371      0.05371 *
 * In             18      0.01063      0.05185      0.04345 *
 * In             19     -0.02714      0.02423      0.02423 *
 * In             20      0.01063      0.04345      0.05184 *
 * In             21     -0.01255      0.07144     -0.01255 *
 * In             22      0.00452     -0.03919      0.00451 *
 * In             23     -0.16767     -0.07280      0.06606 *
 * In             24      0.06606     -0.07280     -0.16768 *
 * In             25     -0.01255     -0.01255      0.07144 *
 * In             26      0.06606     -0.16767     -0.07280 *
 * In             27     -0.16767      0.06606     -0.07280 *
 * In             28      0.00452      0.00451     -0.03919 *
 * In             29      0.06278     -0.04106      0.06278 *
 * In             30     -0.04105      0.06278      0.06278 *
 * In             31      0.06278      0.06277     -0.04106 *
 *                                                          *
 ************************************************************

 Pseudo atomic calculation performed for P 3s2 3p3

 Converged in 23 iterations to a total energy of -208.0292 eV

 Pseudo atomic calculation performed for In 4d10 5s2 5p1

 Converged in 42 iterations to a total energy of -1747.4501 eV
Charge spilling parameter for spin component 1 = 0.20%
Charge spilling parameter for spin component 2 = 0.20%

                   Orbital Populations                  
  ---------------------------------------------------------------
     Ion    Atom   Orbital              Up        Down      Spin
  ---------------------------------------------------------------
      P     1      S                    0.871     0.871     0.000
      P     1      Px                   0.647     0.647    -0.000
      P     1      Py                   0.647     0.647    -0.000
      P     1      Pz                   0.665     0.665     0.000
      P     2      S                    0.871     0.871    -0.000
      P     2      Px                   0.665     0.665    -0.000
      P     2      Py                   0.647     0.647    -0.000
      P     2      Pz                   0.647     0.647    -0.000
      P     3      S                    0.871     0.871    -0.000
      P     3      Px                   0.647     0.647    -0.000
      P     3      Py                   0.665     0.665    -0.000
      P     3      Pz                   0.647     0.647    -0.000
      P     4      S                    0.908     0.908    -0.000
      P     4      Px                   0.535     0.535    -0.000
      P     4      Py                   0.535     0.535    -0.000
      P     4      Pz                   0.535     0.535    -0.000
      P     5      S                    0.869     0.869     0.000
      P     5      Px                   0.656     0.656    -0.000
      P     5      Py                   0.656     0.656    -0.000
      P     5      Pz                   0.655     0.655     0.000
      P     6      S                    0.875     0.875     0.000
      P     6      Px                   0.660     0.660    -0.000
      P     6      Py                   0.643     0.643    -0.000
      P     6      Pz                   0.644     0.644    -0.000
      P     7      S                    0.875     0.875     0.000
      P     7      Px                   0.643     0.643     0.000
      P     7      Py                   0.660     0.660    -0.000
      P     7      Pz                   0.644     0.644    -0.000
      P     8      S                    0.868     0.868    -0.000
      P     8      Px                   0.657     0.657    -0.000
      P     8      Py                   0.657     0.657     0.000
      P     8      Pz                   0.653     0.653    -0.000
      P     9      S                    0.875     0.875     0.000
      P     9      Px                   0.643     0.643     0.000
      P     9      Py                   0.644     0.644     0.000
      P     9      Pz                   0.660     0.660    -0.000
      P    10      S                    0.875     0.875     0.000
      P    10      Px                   0.660     0.660    -0.000
      P    10      Py                   0.644     0.644     0.000
      P    10      Pz                   0.643     0.643    -0.000
      P    11      S                    0.869     0.869     0.000
      P    11      Px                   0.656     0.656    -0.000
      P    11      Py                   0.655     0.655     0.000
      P    11      Pz                   0.656     0.656    -0.000
      P    12      S                    0.868     0.868    -0.000
      P    12      Px                   0.657     0.657    -0.000
      P    12      Py                   0.653     0.653    -0.000
      P    12      Pz                   0.657     0.657     0.000
      P    13      S                    0.872     0.872     0.000
      P    13      Px                   0.651     0.651    -0.000
      P    13      Py                   0.658     0.658     0.000
      P    13      Pz                   0.651     0.651    -0.000
      P    14      S                    0.871     0.871     0.000
      P    14      Px                   0.620     0.620     0.000
      P    14      Py                   0.628     0.628     0.000
      P    14      Pz                   0.628     0.628     0.000
      P    15      S                    0.872     0.872     0.000
      P    15      Px                   0.651     0.651    -0.000
      P    15      Py                   0.651     0.651    -0.000
      P    15      Pz                   0.658     0.658     0.000
      P    16      S                    0.874     0.874    -0.000
      P    16      Px                   0.658     0.658    -0.000
      P    16      Py                   0.649     0.649    -0.000
      P    16      Pz                   0.649     0.649    -0.000
      P    17      S                    0.875     0.875     0.000
      P    17      Px                   0.644     0.644    -0.000
      P    17      Py                   0.643     0.643    -0.000
      P    17      Pz                   0.660     0.660    -0.000
      P    18      S                    0.869     0.869     0.000
      P    18      Px                   0.655     0.655    -0.000
      P    18      Py                   0.656     0.656    -0.000
      P    18      Pz                   0.656     0.656    -0.000
      P    19      S                    0.875     0.875     0.000
      P    19      Px                   0.644     0.644     0.000
      P    19      Py                   0.660     0.660    -0.000
      P    19      Pz                   0.643     0.643    -0.000
      P    20      S                    0.868     0.868     0.000
      P    20      Px                   0.653     0.653    -0.000
      P    20      Py                   0.657     0.657    -0.000
      P    20      Pz                   0.657     0.657     0.000
      P    21      S                    0.872     0.872     0.000
      P    21      Px                   0.658     0.658    -0.000
      P    21      Py                   0.651     0.651    -0.000
      P    21      Pz                   0.651     0.651    -0.000
      P    22      S                    0.872     0.872     0.000
      P    22      Px                   0.651     0.651    -0.000
      P    22      Py                   0.651     0.651    -0.000
      P    22      Pz                   0.658     0.658     0.000
      P    23      S                    0.871     0.871     0.000
      P    23      Px                   0.628     0.628     0.000
      P    23      Py                   0.620     0.620     0.000
      P    23      Pz                   0.628     0.628     0.000
      P    24      S                    0.874     0.874     0.000
      P    24      Px                   0.649     0.649    -0.000
      P    24      Py                   0.658     0.658    -0.000
      P    24      Pz                   0.649     0.649     0.000
      P    25      S                    0.871     0.871     0.000
      P    25      Px                   0.628     0.628    -0.000
      P    25      Py                   0.628     0.628     0.000
      P    25      Pz                   0.620     0.620    -0.000
      P    26      S                    0.872     0.872     0.000
      P    26      Px                   0.651     0.651     0.000
      P    26      Py                   0.658     0.658     0.000
      P    26      Pz                   0.651     0.651    -0.000
      P    27      S                    0.872     0.872     0.000
      P    27      Px                   0.658     0.658    -0.000
      P    27      Py                   0.651     0.651     0.000
      P    27      Pz                   0.651     0.651    -0.000
      P    28      S                    0.874     0.874     0.000
      P    28      Px                   0.649     0.649    -0.000
      P    28      Py                   0.649     0.649    -0.000
      P    28      Pz                   0.658     0.658    -0.000
      P    29      S                    0.867     0.867     0.000
      P    29      Px                   0.657     0.657     0.000
      P    29      Py                   0.657     0.657     0.000
      P    29      Pz                   0.656     0.656    -0.000
      P    30      S                    0.867     0.867    -0.000
      P    30      Px                   0.656     0.656    -0.000
      P    30      Py                   0.657     0.657     0.000
      P    30      Pz                   0.657     0.657     0.000
      P    31      S                    0.867     0.867    -0.000
      P    31      Px                   0.657     0.657     0.000
      P    31      Py                   0.656     0.656     0.000
      P    31      Pz                   0.657     0.657     0.000
      P    32      S                    0.868     0.868     0.000
      P    32      Px                   0.656     0.656     0.000
      P    32      Py                   0.656     0.656     0.000
      P    32      Pz                   0.656     0.656     0.000
     In     1      Dzz                  1.000     1.000    -0.000
     In     1      Dzy                  0.998     0.998    -0.000
     In     1      Dzx                  0.998     0.999    -0.000
     In     1      Dxx-yy               1.000     1.000     0.000
     In     1      Dxy                  0.998     0.999    -0.000
     In     1      S                    0.701     0.701     0.000
     In     1      Px                   0.239     0.239    -0.000
     In     1      Py                   0.239     0.239    -0.000
     In     1      Pz                   0.239     0.239    -0.000
     In     1      S                   -0.253    -0.253    -0.000
     In     2      Dzz                  1.000     1.000    -0.000
     In     2      Dzy                  0.998     0.998     0.000
     In     2      Dzx                  0.998     0.998     0.000
     In     2      Dxx-yy               1.000     1.000    -0.000
     In     2      Dxy                  0.998     0.998     0.000
     In     2      S                    0.708     0.708     0.000
     In     2      Px                   0.241     0.241     0.000
     In     2      Py                   0.238     0.238     0.000
     In     2      Pz                   0.241     0.241    -0.000
     In     2      S                   -0.248    -0.249     0.000
     In     3      Dzz                  1.000     1.000    -0.000
     In     3      Dzy                  0.998     0.998     0.000
     In     3      Dzx                  0.998     0.998     0.000
     In     3      Dxx-yy               1.000     1.000    -0.000
     In     3      Dxy                  0.998     0.998     0.000
     In     3      S                    0.708     0.708     0.000
     In     3      Px                   0.238     0.238     0.000
     In     3      Py                   0.241     0.241     0.000
     In     3      Pz                   0.241     0.241    -0.000
     In     3      S                   -0.248    -0.249     0.000
     In     4      Dzz                  1.000     1.000    -0.000
     In     4      Dzy                  0.998     0.998     0.000
     In     4      Dzx                  0.998     0.998     0.000
     In     4      Dxx-yy               1.000     1.000    -0.000
     In     4      Dxy                  0.998     0.998     0.000
     In     4      S                    0.708     0.708     0.000
     In     4      Px                   0.241     0.241    -0.000
     In     4      Py                   0.241     0.241     0.000
     In     4      Pz                   0.238     0.238     0.000
     In     4      S                   -0.249    -0.249     0.000
     In     5      Dzz                  1.000     1.000     0.000
     In     5      Dzy                  0.999     0.999    -0.000
     In     5      Dzx                  0.999     0.999    -0.000
     In     5      Dxx-yy               1.000     1.000     0.000
     In     5      Dxy                  0.999     0.999    -0.000
     In     5      S                    0.706     0.706    -0.000
     In     5      Px                   0.239     0.239    -0.000
     In     5      Py                   0.239     0.239    -0.000
     In     5      Pz                   0.232     0.232    -0.000
     In     5      S                   -0.249    -0.249     0.000
     In     6      Dzz                  1.000     1.000    -0.000
     In     6      Dzy                  0.999     0.999    -0.000
     In     6      Dzx                  0.999     0.999    -0.000
     In     6      Dxx-yy               1.000     1.000     0.000
     In     6      Dxy                  0.999     0.999    -0.000
     In     6      S                    0.712     0.712     0.000
     In     6      Px                   0.238     0.238    -0.000
     In     6      Py                   0.240     0.240    -0.000
     In     6      Pz                   0.237     0.237    -0.000
     In     6      S                   -0.247    -0.247     0.000
     In     7      Dzz                  1.000     1.000    -0.000
     In     7      Dzy                  0.999     0.999     0.000
     In     7      Dzx                  0.999     0.999    -0.000
     In     7      Dxx-yy               1.000     1.000     0.000
     In     7      Dxy                  0.999     0.999    -0.000
     In     7      S                    0.712     0.712     0.000
     In     7      Px                   0.240     0.240    -0.000
     In     7      Py                   0.238     0.238    -0.000
     In     7      Pz                   0.237     0.237     0.000
     In     7      S                   -0.247    -0.247    -0.000
     In     8      Dzz                  1.000     1.000     0.000
     In     8      Dzy                  0.999     0.999     0.000
     In     8      Dzx                  0.999     0.999    -0.000
     In     8      Dxx-yy               1.000     1.000     0.000
     In     8      Dxy                  0.999     0.999     0.000
     In     8      S                    0.723     0.723    -0.000
     In     8      Px                   0.237     0.237    -0.000
     In     8      Py                   0.237     0.237    -0.000
     In     8      Pz                   0.249     0.249     0.000
     In     8      S                   -0.205    -0.205     0.000
     In     9      Dzz                  1.000     1.000     0.000
     In     9      Dzy                  0.999     0.999    -0.000
     In     9      Dzx                  0.999     0.999    -0.000
     In     9      Dxx-yy               1.000     1.000     0.000
     In     9      Dxy                  0.999     0.999    -0.000
     In     9      S                    0.706     0.706    -0.000
     In     9      Px                   0.239     0.239    -0.000
     In     9      Py                   0.232     0.232    -0.000
     In     9      Pz                   0.239     0.239     0.000
     In     9      S                   -0.249    -0.249    -0.000
     In    10      Dzz                  1.000     1.000     0.000
     In    10      Dzy                  0.999     0.999     0.000
     In    10      Dzx                  0.999     0.999     0.000
     In    10      Dxx-yy               1.000     1.000     0.000
     In    10      Dxy                  0.999     0.999    -0.000
     In    10      S                    0.723     0.723    -0.000
     In    10      Px                   0.237     0.237    -0.000
     In    10      Py                   0.249     0.249     0.000
     In    10      Pz                   0.237     0.237    -0.000
     In    10      S                   -0.205    -0.205     0.000
     In    11      Dzz                  1.000     1.000    -0.000
     In    11      Dzy                  0.999     0.999    -0.000
     In    11      Dzx                  0.999     0.999    -0.000
     In    11      Dxx-yy               1.000     1.000     0.000
     In    11      Dxy                  0.999     0.999    -0.000
     In    11      S                    0.712     0.712     0.000
     In    11      Px                   0.240     0.240    -0.000
     In    11      Py                   0.237     0.237     0.000
     In    11      Pz                   0.238     0.238    -0.000
     In    11      S                   -0.247    -0.247     0.000
     In    12      Dzz                  1.000     1.000     0.000
     In    12      Dzy                  0.999     0.999    -0.000
     In    12      Dzx                  0.999     0.999    -0.000
     In    12      Dxx-yy               1.000     1.000    -0.000
     In    12      Dxy                  0.999     0.999    -0.000
     In    12      S                    0.712     0.712     0.000
     In    12      Px                   0.238     0.238    -0.000
     In    12      Py                   0.237     0.237    -0.000
     In    12      Pz                   0.240     0.240    -0.000
     In    12      S                   -0.247    -0.247    -0.000
     In    13      Dzz                  1.000     1.000     0.000
     In    13      Dzy                  0.999     0.999     0.000
     In    13      Dzx                  0.998     0.998     0.000
     In    13      Dxx-yy               1.000     1.000     0.000
     In    13      Dxy                  0.998     0.998     0.000
     In    13      S                    0.708     0.708     0.000
     In    13      Px                   0.239     0.239     0.000
     In    13      Py                   0.241     0.241    -0.000
     In    13      Pz                   0.241     0.241     0.000
     In    13      S                   -0.248    -0.248    -0.000
     In    14      Dzz                  1.000     1.000    -0.000
     In    14      Dzy                  0.999     0.999    -0.000
     In    14      Dzx                  0.999     0.999    -0.000
     In    14      Dxx-yy               1.000     1.000     0.000
     In    14      Dxy                  0.999     0.999    -0.000
     In    14      S                    0.701     0.701     0.000
     In    14      Px                   0.241     0.241    -0.000
     In    14      Py                   0.231     0.231    -0.000
     In    14      Pz                   0.242     0.242     0.000
     In    14      S                   -0.242    -0.242     0.000
     In    15      Dzz                  1.000     1.000     0.000
     In    15      Dzy                  0.998     0.998    -0.000
     In    15      Dzx                  0.998     0.998    -0.000
     In    15      Dxx-yy               1.000     1.000     0.000
     In    15      Dxy                  0.998     0.998    -0.000
     In    15      S                    0.707     0.707    -0.000
     In    15      Px                   0.242     0.242     0.000
     In    15      Py                   0.240     0.240    -0.000
     In    15      Pz                   0.240     0.240    -0.000
     In    15      S                   -0.248    -0.248    -0.000
     In    16      Dzz                  1.000     1.000     0.000
     In    16      Dzy                  0.999     0.999    -0.000
     In    16      Dzx                  0.999     0.999    -0.000
     In    16      Dxx-yy               1.000     1.000    -0.000
     In    16      Dxy                  0.999     0.999    -0.000
     In    16      S                    0.701     0.701     0.000
     In    16      Px                   0.241     0.241     0.000
     In    16      Py                   0.242     0.242     0.000
     In    16      Pz                   0.231     0.231     0.000
     In    16      S                   -0.242    -0.242     0.000
     In    17      Dzz                  1.000     1.000     0.000
     In    17      Dzy                  0.999     0.999    -0.000
     In    17      Dzx                  0.999     0.999    -0.000
     In    17      Dxx-yy               1.000     1.000     0.000
     In    17      Dxy                  0.999     0.999    -0.000
     In    17      S                    0.706     0.706    -0.000
     In    17      Px                   0.232     0.232    -0.000
     In    17      Py                   0.239     0.239    -0.000
     In    17      Pz                   0.239     0.239     0.000
     In    17      S                   -0.249    -0.249    -0.000
     In    18      Dzz                  1.000     1.000     0.000
     In    18      Dzy                  0.999     0.999    -0.000
     In    18      Dzx                  0.999     0.999    -0.000
     In    18      Dxx-yy               1.000     1.000     0.000
     In    18      Dxy                  0.999     0.999    -0.000
     In    18      S                    0.712     0.712     0.000
     In    18      Px                   0.237     0.237    -0.000
     In    18      Py                   0.240     0.240     0.000
     In    18      Pz                   0.238     0.238    -0.000
     In    18      S                   -0.247    -0.247     0.000
     In    19      Dzz                  1.000     1.000     0.000
     In    19      Dzy                  0.999     0.999     0.000
     In    19      Dzx                  0.999     0.999    -0.000
     In    19      Dxx-yy               1.000     1.000     0.000
     In    19      Dxy                  0.999     0.999    -0.000
     In    19      S                    0.723     0.723    -0.000
     In    19      Px                   0.249     0.249     0.000
     In    19      Py                   0.237     0.237    -0.000
     In    19      Pz                   0.237     0.237    -0.000
     In    19      S                   -0.205    -0.205    -0.000
     In    20      Dzz                  1.000     1.000     0.000
     In    20      Dzy                  0.999     0.999    -0.000
     In    20      Dzx                  0.999     0.999    -0.000
     In    20      Dxx-yy               1.000     1.000    -0.000
     In    20      Dxy                  0.999     0.999    -0.000
     In    20      S                    0.712     0.712     0.000
     In    20      Px                   0.237     0.237     0.000
     In    20      Py                   0.238     0.238    -0.000
     In    20      Pz                   0.240     0.240     0.000
     In    20      S                   -0.247    -0.247    -0.000
     In    21      Dzz                  1.000     1.000     0.000
     In    21      Dzy                  0.998     0.998     0.000
     In    21      Dzx                  0.999     0.999     0.000
     In    21      Dxx-yy               1.000     1.000     0.000
     In    21      Dxy                  0.998     0.998     0.000
     In    21      S                    0.708     0.708     0.000
     In    21      Px                   0.241     0.241     0.000
     In    21      Py                   0.239     0.239    -0.000
     In    21      Pz                   0.241     0.241    -0.000
     In    21      S                   -0.248    -0.248     0.000
     In    22      Dzz                  1.000     1.000     0.000
     In    22      Dzy                  0.998     0.998    -0.000
     In    22      Dzx                  0.998     0.998    -0.000
     In    22      Dxx-yy               1.000     1.000     0.000
     In    22      Dxy                  0.998     0.998    -0.000
     In    22      S                    0.707     0.707    -0.000
     In    22      Px                   0.240     0.240    -0.000
     In    22      Py                   0.242     0.242     0.000
     In    22      Pz                   0.240     0.240    -0.000
     In    22      S                   -0.248    -0.248     0.000
     In    23      Dzz                  1.000     1.000    -0.000
     In    23      Dzy                  0.999     0.999    -0.000
     In    23      Dzx                  0.999     0.999    -0.000
     In    23      Dxx-yy               1.000     1.000    -0.000
     In    23      Dxy                  0.999     0.999    -0.000
     In    23      S                    0.701     0.701     0.000
     In    23      Px                   0.231     0.231    -0.000
     In    23      Py                   0.241     0.241    -0.000
     In    23      Pz                   0.242     0.242    -0.000
     In    23      S                   -0.242    -0.242    -0.000
     In    24      Dzz                  1.000     1.000    -0.000
     In    24      Dzy                  0.999     0.999    -0.000
     In    24      Dzx                  0.999     0.999    -0.000
     In    24      Dxx-yy               1.000     1.000     0.000
     In    24      Dxy                  0.999     0.999    -0.000
     In    24      S                    0.701     0.701     0.000
     In    24      Px                   0.242     0.242     0.000
     In    24      Py                   0.241     0.241     0.000
     In    24      Pz                   0.231     0.231     0.000
     In    24      S                   -0.242    -0.242    -0.000
     In    25      Dzz                  1.000     1.000     0.000
     In    25      Dzy                  0.998     0.998     0.000
     In    25      Dzx                  0.998     0.998     0.000
     In    25      Dxx-yy               1.000     1.000     0.000
     In    25      Dxy                  0.999     0.999     0.000
     In    25      S                    0.708     0.708     0.000
     In    25      Px                   0.241     0.241     0.000
     In    25      Py                   0.241     0.241     0.000
     In    25      Pz                   0.239     0.239    -0.000
     In    25      S                   -0.248    -0.248     0.000
     In    26      Dzz                  1.000     1.000     0.000
     In    26      Dzy                  0.999     0.999    -0.000
     In    26      Dzx                  0.999     0.999    -0.000
     In    26      Dxx-yy               1.000     1.000    -0.000
     In    26      Dxy                  0.999     0.999    -0.000
     In    26      S                    0.701     0.701     0.000
     In    26      Px                   0.242     0.242     0.000
     In    26      Py                   0.231     0.231    -0.000
     In    26      Pz                   0.241     0.241     0.000
     In    26      S                   -0.242    -0.242    -0.000
     In    27      Dzz                  1.000     1.000     0.000
     In    27      Dzy                  0.999     0.999    -0.000
     In    27      Dzx                  0.999     0.999     0.000
     In    27      Dxx-yy               1.000     1.000     0.000
     In    27      Dxy                  0.999     0.999    -0.000
     In    27      S                    0.701     0.701    -0.000
     In    27      Px                   0.231     0.231    -0.000
     In    27      Py                   0.242     0.242     0.000
     In    27      Pz                   0.241     0.241    -0.000
     In    27      S                   -0.242    -0.242     0.000
     In    28      Dzz                  1.000     1.000     0.000
     In    28      Dzy                  0.998     0.998    -0.000
     In    28      Dzx                  0.998     0.998    -0.000
     In    28      Dxx-yy               1.000     1.000     0.000
     In    28      Dxy                  0.998     0.998    -0.000
     In    28      S                    0.707     0.707    -0.000
     In    28      Px                   0.240     0.240    -0.000
     In    28      Py                   0.240     0.240    -0.000
     In    28      Pz                   0.242     0.242    -0.000
     In    28      S                   -0.248    -0.248     0.000
     In    29      Dzz                  1.000     1.000    -0.000
     In    29      Dzy                  0.999     0.999    -0.000
     In    29      Dzx                  0.998     0.998    -0.000
     In    29      Dxx-yy               1.000     1.000     0.000
     In    29      Dxy                  0.999     0.999    -0.000
     In    29      S                    0.704     0.704     0.000
     In    29      Px                   0.240     0.240     0.000
     In    29      Py                   0.239     0.239    -0.000
     In    29      Pz                   0.240     0.240    -0.000
     In    29      S                   -0.251    -0.251    -0.000
     In    30      Dzz                  1.000     1.000    -0.000
     In    30      Dzy                  0.998     0.998    -0.000
     In    30      Dzx                  0.999     0.999    -0.000
     In    30      Dxx-yy               1.000     1.000     0.000
     In    30      Dxy                  0.999     0.999    -0.000
     In    30      S                    0.704     0.704     0.000
     In    30      Px                   0.239     0.239     0.000
     In    30      Py                   0.240     0.240     0.000
     In    30      Pz                   0.240     0.240    -0.000
     In    30      S                   -0.251    -0.251    -0.000
     In    31      Dzz                  1.000     1.000     0.000
     In    31      Dzy                  0.999     0.999    -0.000
     In    31      Dzx                  0.999     0.999     0.000
     In    31      Dxx-yy               1.000     1.000    -0.000
     In    31      Dxy                  0.998     0.998    -0.000
     In    31      S                    0.704     0.704     0.000
     In    31      Px                   0.240     0.240    -0.000
     In    31      Py                   0.240     0.240    -0.000
     In    31      Pz                   0.239     0.239     0.000
     In    31      S                   -0.251    -0.251    -0.000
  ---------------------------------------------------------------
                           Total:     281.500   281.500    -0.000
  ---------------------------------------------------------------

     Atomic Populations (Mulliken)
     -----------------------------
Species          Ion Spin      s       p       d       f      Total   Charge(e)   Spin(hbar/2)
==============================================================================================
  P               1   up:     0.871   1.959   0.000   0.000   2.830    -0.661       -0.000
                  1   dn:     0.871   1.959   0.000   0.000   2.830
  P               2   up:     0.871   1.959   0.000   0.000   2.830    -0.661       -0.000
                  2   dn:     0.871   1.959   0.000   0.000   2.830
  P               3   up:     0.871   1.959   0.000   0.000   2.830    -0.661       -0.000
                  3   dn:     0.871   1.959   0.000   0.000   2.830
  P               4   up:     0.908   1.604   0.000   0.000   2.512    -0.025       -0.000
                  4   dn:     0.908   1.604   0.000   0.000   2.512
  P               5   up:     0.869   1.967   0.000   0.000   2.836    -0.671       -0.000
                  5   dn:     0.869   1.967   0.000   0.000   2.836
  P               6   up:     0.875   1.946   0.000   0.000   2.822    -0.644       -0.000
                  6   dn:     0.875   1.947   0.000   0.000   2.822
  P               7   up:     0.875   1.946   0.000   0.000   2.822    -0.644       -0.000
                  7   dn:     0.875   1.947   0.000   0.000   2.822
  P               8   up:     0.868   1.967   0.000   0.000   2.835    -0.670       -0.000
                  8   dn:     0.868   1.967   0.000   0.000   2.835
  P               9   up:     0.875   1.946   0.000   0.000   2.822    -0.644       -0.000
                  9   dn:     0.875   1.946   0.000   0.000   2.822
  P              10   up:     0.875   1.947   0.000   0.000   2.822    -0.644       -0.000
                 10   dn:     0.875   1.947   0.000   0.000   2.822
  P              11   up:     0.869   1.967   0.000   0.000   2.835    -0.671       -0.000
                 11   dn:     0.869   1.967   0.000   0.000   2.836
  P              12   up:     0.868   1.967   0.000   0.000   2.835    -0.670       -0.000
                 12   dn:     0.868   1.967   0.000   0.000   2.835
  P              13   up:     0.872   1.959   0.000   0.000   2.831    -0.662       -0.000
                 13   dn:     0.872   1.959   0.000   0.000   2.831
  P              14   up:     0.871   1.876   0.000   0.000   2.747    -0.494        0.000
                 14   dn:     0.871   1.876   0.000   0.000   2.747
  P              15   up:     0.872   1.959   0.000   0.000   2.831    -0.662        0.000
                 15   dn:     0.872   1.959   0.000   0.000   2.831
  P              16   up:     0.874   1.956   0.000   0.000   2.830    -0.660       -0.000
                 16   dn:     0.874   1.956   0.000   0.000   2.830
  P              17   up:     0.875   1.946   0.000   0.000   2.822    -0.644       -0.000
                 17   dn:     0.875   1.947   0.000   0.000   2.822
  P              18   up:     0.869   1.967   0.000   0.000   2.836    -0.671       -0.000
                 18   dn:     0.869   1.967   0.000   0.000   2.836
  P              19   up:     0.875   1.947   0.000   0.000   2.822    -0.644       -0.000
                 19   dn:     0.875   1.947   0.000   0.000   2.822
  P              20   up:     0.868   1.967   0.000   0.000   2.835    -0.670       -0.000
                 20   dn:     0.868   1.967   0.000   0.000   2.835
  P              21   up:     0.872   1.959   0.000   0.000   2.831    -0.662        0.000
                 21   dn:     0.872   1.959   0.000   0.000   2.831
  P              22   up:     0.872   1.959   0.000   0.000   2.831    -0.662        0.000
                 22   dn:     0.872   1.959   0.000   0.000   2.831
  P              23   up:     0.871   1.876   0.000   0.000   2.747    -0.494        0.000
                 23   dn:     0.871   1.876   0.000   0.000   2.747
  P              24   up:     0.874   1.956   0.000   0.000   2.830    -0.660       -0.000
                 24   dn:     0.874   1.956   0.000   0.000   2.830
  P              25   up:     0.871   1.876   0.000   0.000   2.747    -0.494        0.000
                 25   dn:     0.871   1.876   0.000   0.000   2.747
  P              26   up:     0.872   1.959   0.000   0.000   2.831    -0.662        0.000
                 26   dn:     0.872   1.959   0.000   0.000   2.831
  P              27   up:     0.872   1.959   0.000   0.000   2.831    -0.662        0.000
                 27   dn:     0.872   1.959   0.000   0.000   2.831
  P              28   up:     0.874   1.956   0.000   0.000   2.830    -0.660       -0.000
                 28   dn:     0.874   1.956   0.000   0.000   2.830
  P              29   up:     0.867   1.970   0.000   0.000   2.836    -0.673        0.000
                 29   dn:     0.867   1.970   0.000   0.000   2.836
  P              30   up:     0.867   1.970   0.000   0.000   2.836    -0.673       -0.000
                 30   dn:     0.867   1.970   0.000   0.000   2.836
  P              31   up:     0.867   1.970   0.000   0.000   2.836    -0.673        0.000
                 31   dn:     0.867   1.970   0.000   0.000   2.836
  P              32   up:     0.868   1.968   0.000   0.000   2.836    -0.671        0.000
                 32   dn:     0.868   1.968   0.000   0.000   2.836
  In              1   up:     0.448   0.717   4.995   0.000   6.160     0.680       -0.000
                  1   dn:     0.448   0.717   4.995   0.000   6.160
  In              2   up:     0.459   0.720   4.995   0.000   6.174     0.653        0.000
                  2   dn:     0.459   0.720   4.995   0.000   6.174
  In              3   up:     0.459   0.720   4.995   0.000   6.174     0.653        0.000
                  3   dn:     0.459   0.720   4.995   0.000   6.174
  In              4   up:     0.459   0.720   4.995   0.000   6.174     0.653        0.000
                  4   dn:     0.459   0.720   4.995   0.000   6.174
  In              5   up:     0.457   0.709   4.995   0.000   6.161     0.677       -0.000
                  5   dn:     0.457   0.709   4.995   0.000   6.161
  In              6   up:     0.465   0.716   4.995   0.000   6.176     0.648       -0.000
                  6   dn:     0.465   0.716   4.995   0.000   6.176
  In              7   up:     0.465   0.716   4.995   0.000   6.176     0.648       -0.000
                  7   dn:     0.465   0.716   4.995   0.000   6.176
  In              8   up:     0.517   0.723   4.996   0.000   6.236     0.528       -0.000
                  8   dn:     0.517   0.723   4.996   0.000   6.236
  In              9   up:     0.457   0.709   4.995   0.000   6.161     0.677       -0.000
                  9   dn:     0.457   0.709   4.995   0.000   6.161
  In             10   up:     0.517   0.723   4.996   0.000   6.236     0.528       -0.000
                 10   dn:     0.517   0.723   4.996   0.000   6.236
  In             11   up:     0.465   0.716   4.995   0.000   6.176     0.648       -0.000
                 11   dn:     0.465   0.716   4.995   0.000   6.176
  In             12   up:     0.465   0.716   4.995   0.000   6.176     0.648       -0.000
                 12   dn:     0.465   0.716   4.995   0.000   6.176
  In             13   up:     0.460   0.721   4.995   0.000   6.175     0.649        0.000
                 13   dn:     0.460   0.721   4.995   0.000   6.175
  In             14   up:     0.459   0.714   4.995   0.000   6.168     0.664        0.000
                 14   dn:     0.459   0.714   4.995   0.000   6.168
  In             15   up:     0.459   0.721   4.995   0.000   6.175     0.650       -0.000
                 15   dn:     0.459   0.721   4.995   0.000   6.175
  In             16   up:     0.459   0.714   4.995   0.000   6.168     0.664        0.000
                 16   dn:     0.459   0.714   4.995   0.000   6.168
  In             17   up:     0.457   0.709   4.995   0.000   6.161     0.677       -0.000
                 17   dn:     0.457   0.709   4.995   0.000   6.161
  In             18   up:     0.465   0.716   4.995   0.000   6.176     0.648        0.000
                 18   dn:     0.465   0.716   4.995   0.000   6.176
  In             19   up:     0.517   0.723   4.996   0.000   6.236     0.528       -0.000
                 19   dn:     0.517   0.723   4.996   0.000   6.236
  In             20   up:     0.465   0.716   4.995   0.000   6.176     0.648       -0.000
                 20   dn:     0.465   0.716   4.995   0.000   6.176
  In             21   up:     0.460   0.721   4.995   0.000   6.175     0.649        0.000
                 21   dn:     0.460   0.721   4.995   0.000   6.175
  In             22   up:     0.459   0.721   4.995   0.000   6.175     0.650       -0.000
                 22   dn:     0.459   0.721   4.995   0.000   6.175
  In             23   up:     0.459   0.714   4.995   0.000   6.168     0.664        0.000
                 23   dn:     0.459   0.714   4.995   0.000   6.168
  In             24   up:     0.459   0.714   4.995   0.000   6.168     0.664        0.000
                 24   dn:     0.459   0.714   4.995   0.000   6.168
  In             25   up:     0.460   0.721   4.995   0.000   6.175     0.649        0.000
                 25   dn:     0.460   0.721   4.995   0.000   6.175
  In             26   up:     0.459   0.714   4.995   0.000   6.168     0.664       -0.000
                 26   dn:     0.459   0.714   4.995   0.000   6.168
  In             27   up:     0.459   0.714   4.995   0.000   6.168     0.664       -0.000
                 27   dn:     0.459   0.714   4.995   0.000   6.168
  In             28   up:     0.459   0.721   4.995   0.000   6.175     0.650       -0.000
                 28   dn:     0.459   0.721   4.995   0.000   6.175
  In             29   up:     0.453   0.719   4.995   0.000   6.167     0.667        0.000
                 29   dn:     0.453   0.719   4.995   0.000   6.167
  In             30   up:     0.453   0.719   4.995   0.000   6.167     0.667        0.000
                 30   dn:     0.453   0.719   4.995   0.000   6.167
  In             31   up:     0.453   0.719   4.995   0.000   6.167     0.667        0.000
                 31   dn:     0.453   0.719   4.995   0.000   6.167
==============================================================================================

                 Bond                   Population        Spin       Length (A)
================================================================================
              P 4  -- P 14                   0.53         0.00          2.27035
              P 4  -- P 25                   0.53         0.00          2.27035
              P 4  -- P 23                   0.53         0.00          2.27035
              P 31 -- In 31                  0.66        -0.00          2.53792
              P 30 -- In 29                  0.66         0.00          2.53792
              P 30 -- In 31                  0.66         0.00          2.53792
              P 29 -- In 29                  0.66         0.00          2.53792
              P 31 -- In 30                  0.66         0.00          2.53792
              P 29 -- In 30                  0.66         0.00          2.53792
              P 32 -- In 1                   0.65         0.00          2.54627
              P 19 -- In 25                  0.65         0.00          2.55244
              P 9  -- In 13                  0.65         0.00          2.55244
              P 6  -- In 21                  0.65         0.00          2.55244
              P 10 -- In 25                  0.65         0.00          2.55244
              P 7  -- In 13                  0.65         0.00          2.55244
              P 17 -- In 21                  0.65         0.00          2.55244
              P 11 -- In 2                   0.64         0.00          2.55301
              P 18 -- In 3                   0.64         0.00          2.55301
              P 5  -- In 4                   0.64         0.00          2.55301
              P 21 -- In 22                  0.65         0.00          2.55307
              P 15 -- In 15                  0.65        -0.00          2.55307
              P 27 -- In 28                  0.65         0.00          2.55307
              P 26 -- In 28                  0.65         0.00          2.55307
              P 22 -- In 22                  0.65        -0.00          2.55307
              P 13 -- In 15                  0.65        -0.00          2.55307
              P 3  -- In 4                   0.65         0.00          2.55321
              P 3  -- In 3                   0.65        -0.00          2.55321
              P 2  -- In 4                   0.65         0.00          2.55321
              P 2  -- In 2                   0.65        -0.00          2.55321
              P 1  -- In 3                   0.65         0.00          2.55321
              P 1  -- In 2                   0.65        -0.00          2.55321
              P 20 -- In 26                  0.66        -0.00          2.55420
              P 20 -- In 24                  0.66        -0.00          2.55420
              P 12 -- In 16                  0.66         0.00          2.55420
              P 8  -- In 23                  0.66        -0.00          2.55420
              P 8  -- In 14                  0.66        -0.00          2.55420
              P 12 -- In 27                  0.66         0.00          2.55420
              P 30 -- In 15                  0.63         0.00          2.55585
              P 31 -- In 22                  0.63        -0.00          2.55585
              P 29 -- In 28                  0.63        -0.00          2.55585
              P 30 -- In 13                  0.65         0.00          2.55877
              P 29 -- In 25                  0.65         0.00          2.55877
              P 31 -- In 21                  0.65         0.00          2.55877
              P 17 -- In 24                  0.67        -0.00          2.55914
              P 19 -- In 26                  0.67        -0.00          2.55914
              P 6  -- In 23                  0.67         0.00          2.55914
              P 10 -- In 27                  0.67         0.00          2.55914
              P 9  -- In 16                  0.67        -0.00          2.55914
              P 7  -- In 14                  0.67         0.00          2.55914
              P 11 -- In 11                  0.65         0.00          2.56141
              P 18 -- In 18                  0.65         0.00          2.56141
              P 18 -- In 20                  0.65         0.00          2.56141
              P 5  -- In 7                   0.65         0.00          2.56141
              P 5  -- In 6                   0.65         0.00          2.56141
              P 11 -- In 12                  0.65         0.00          2.56141
              P 15 -- In 6                   0.63         0.00          2.56181
              P 27 -- In 18                  0.63         0.00          2.56181
              P 26 -- In 11                  0.63         0.00          2.56181
              P 22 -- In 7                   0.63         0.00          2.56181
              P 13 -- In 12                  0.63         0.00          2.56181
              P 21 -- In 20                  0.63         0.00          2.56181
              P 28 -- In 31                  0.66        -0.00          2.56304
              P 16 -- In 30                  0.66         0.00          2.56304
              P 24 -- In 29                  0.66        -0.00          2.56304
              P 20 -- In 13                  0.65        -0.00          2.56361
              P 12 -- In 21                  0.65        -0.00          2.56361
              P 8  -- In 25                  0.65        -0.00          2.56361
              P 11 -- In 1                   0.65        -0.00          2.56429
              P 5  -- In 1                   0.65        -0.00          2.56429
              P 18 -- In 1                   0.65        -0.00          2.56429
              P 32 -- In 15                  0.65        -0.00          2.56522
              P 32 -- In 22                  0.65         0.00          2.56522
              P 32 -- In 28                  0.65         0.00          2.56522
              P 20 -- In 3                   0.64         0.00          2.57295
              P 12 -- In 2                   0.64         0.00          2.57295
              P 8  -- In 4                   0.64        -0.00          2.57295
              P 1  -- In 5                   0.64        -0.00          2.57936
              P 3  -- In 9                   0.64        -0.00          2.57936
              P 2  -- In 17                  0.64        -0.00          2.57936
              P 16 -- In 17                  0.62         0.00          2.58130
              P 28 -- In 5                   0.62         0.00          2.58130
              P 24 -- In 9                   0.62         0.00          2.58130
              P 26 -- In 9                   0.63        -0.00          2.58226
              P 22 -- In 5                   0.63        -0.00          2.58226
              P 15 -- In 5                   0.63         0.00          2.58226
              P 27 -- In 17                  0.63        -0.00          2.58226
              P 13 -- In 9                   0.63         0.00          2.58226
              P 21 -- In 17                  0.63        -0.00          2.58226
              P 16 -- In 6                   0.60        -0.00          2.58773
              P 16 -- In 12                  0.60        -0.00          2.58773
              P 28 -- In 18                  0.60        -0.00          2.58773
              P 24 -- In 20                  0.60        -0.00          2.58773
              P 24 -- In 7                   0.60        -0.00          2.58773
              P 28 -- In 11                  0.60        -0.00          2.58773
              P 14 -- In 30                  0.60         0.00          2.58916
              P 23 -- In 29                  0.60         0.00          2.58916
              P 25 -- In 31                  0.60         0.00          2.58916
              P 19 -- In 20                  0.61        -0.00          2.59228
              P 7  -- In 7                   0.61        -0.00          2.59228
              P 17 -- In 18                  0.61        -0.00          2.59228
              P 9  -- In 11                  0.61        -0.00          2.59228
              P 10 -- In 12                  0.61        -0.00          2.59228
              P 6  -- In 6                   0.61        -0.00          2.59228
              P 1  -- In 8                   0.60         0.00          2.59477
              P 3  -- In 10                  0.60        -0.00          2.59477
              P 2  -- In 19                  0.60        -0.00          2.59477
              P 13 -- In 14                  0.65        -0.00          2.59502
              P 21 -- In 23                  0.65        -0.00          2.59502
              P 26 -- In 26                  0.65         0.00          2.59502
              P 22 -- In 24                  0.65         0.00          2.59502
              P 15 -- In 16                  0.65         0.00          2.59502
              P 27 -- In 27                  0.65         0.00          2.59502
              P 23 -- In 24                  0.56        -0.00          2.63426
              P 23 -- In 23                  0.56        -0.00          2.63426
              P 25 -- In 27                  0.56        -0.00          2.63426
              P 25 -- In 26                  0.56        -0.00          2.63426
              P 14 -- In 16                  0.56        -0.00          2.63426
              P 14 -- In 14                  0.56         0.00          2.63426
              P 19 -- In 19                  0.59        -0.00          2.63542
              P 17 -- In 19                  0.59        -0.00          2.63542
              P 10 -- In 10                  0.59        -0.00          2.63542
              P 9  -- In 10                  0.59        -0.00          2.63542
              P 7  -- In 8                   0.59        -0.00          2.63542
              P 6  -- In 8                   0.59        -0.00          2.63542
================================================================================

 Hirshfeld supercell size:           2           2           2
Standard grid dimensions: 240 240 240
Fine grid dimensions:     240 240 240


     Hirshfeld Analysis
     ------------------
Species   Ion     Hirshfeld Charge (e)  Spin (hbar/2)
===================================================
  P        1                -0.24       -0.00
  P        2                -0.24       -0.00
  P        3                -0.24       -0.00
  P        4                 0.04       -0.00
  P        5                -0.24       -0.00
  P        6                -0.24       -0.00
  P        7                -0.24       -0.00
  P        8                -0.24        0.00
  P        9                -0.24       -0.00
  P       10                -0.24       -0.00
  P       11                -0.24       -0.00
  P       12                -0.24        0.00
  P       13                -0.24       -0.00
  P       14                -0.15        0.00
  P       15                -0.24       -0.00
  P       16                -0.24       -0.00
  P       17                -0.24       -0.00
  P       18                -0.24       -0.00
  P       19                -0.24       -0.00
  P       20                -0.24        0.00
  P       21                -0.24       -0.00
  P       22                -0.24       -0.00
  P       23                -0.15        0.00
  P       24                -0.24       -0.00
  P       25                -0.15        0.00
  P       26                -0.24       -0.00
  P       27                -0.24       -0.00
  P       28                -0.24       -0.00
  P       29                -0.24       -0.00
  P       30                -0.24       -0.00
  P       31                -0.24       -0.00
  P       32                -0.24       -0.00
  In       1                 0.24       -0.00
  In       2                 0.23        0.00
  In       3                 0.23        0.00
  In       4                 0.23        0.00
  In       5                 0.24       -0.00
  In       6                 0.24       -0.00
  In       7                 0.24       -0.00
  In       8                 0.17       -0.00
  In       9                 0.24       -0.00
  In      10                 0.17       -0.00
  In      11                 0.24       -0.00
  In      12                 0.24       -0.00
  In      13                 0.23        0.00
  In      14                 0.24        0.00
  In      15                 0.23       -0.00
  In      16                 0.24        0.00
  In      17                 0.24       -0.00
  In      18                 0.24       -0.00
  In      19                 0.17       -0.00
  In      20                 0.24       -0.00
  In      21                 0.23        0.00
  In      22                 0.23       -0.00
  In      23                 0.24        0.00
  In      24                 0.24        0.00
  In      25                 0.23        0.00
  In      26                 0.24        0.00
  In      27                 0.24        0.00
  In      28                 0.23       -0.00
  In      29                 0.23       -0.00
  In      30                 0.23       -0.00
  In      31                 0.23       -0.00
===================================================

 
 A BibTeX formatted list of references used in this run has been written to 
 In_Vacancy_Migration_3->60_Singlepoints_7.bib
 
Initialisation time =     30.36 s
Calculation time    =   8467.84 s
Finalisation time   =    156.38 s
Total time          =   8654.59 s
Peak Memory Use     = 9532956 kB
 
Overall parallel efficiency rating: Terrible (34%)
 
Data was distributed by:-
G-vector (3-way); efficiency rating: Poor (36%)
k-point (36-way); efficiency rating: Very good (83%)
