 +-------------------------------------------------+
 |                                                 |
 |      CCC   AA    SSS  TTTTT  EEEEE  PPPP        |
 |     C     A  A  S       T    E      P   P       |
 |     C     AAAA   SS     T    EEE    PPPP        |
 |     C     A  A     S    T    E      P           |
 |      CCC  A  A  SSS     T    EEEEE  P           |
 |                                                 |
 +-------------------------------------------------+
 |                                                 |
 | Welcome to Academic Release CASTEP version 20.11|          
 | Ab Initio Total Energy Program                  |
 |                                                 |
 | Authors:                                        |
 | M. Segall, M. Probert, C. Pickard, P. Hasnip,   |
 | S. Clark, K. Refson, J. R. Yates, M. Payne      |
 |                                                 |
 | Contributors:                                   |
 | P. Lindan, P. Haynes, J. White, V. Milman,      |
 | N. Govind, M. Gibson, P. Tulip, V. Cocula,      |
 | B. Montanari, D. Quigley, M. Glover,            |
 | L. Bernasconi, A. Perlov, M. Plummer,           |
 | E. McNellis, J. Meyer, J. Gale, D. Jochym       |
 | J. Aarons, B. Walker, R. Gillen, D. Jones       |
 | T. Green, I. J. Bush, C. J. Armstrong,          |
 | E. J. Higgins, E. L. Brown, M. S. McFly,        |
 | J. Wilkins, B-C. Shih, P. J. P. Byrne,          |
 | R. J. Maurer, J. C. Womack, J. Dziedzic,        |
 | J. R. Kermode, A. Bartok-Partay                 |
 |                                                 |
 | Copyright (c) 2000 - 2020                       |
 |                                                 |
 |     Distributed under license from Cambridge    |
 |     Enterprise for academic use only.           |
 |                                                 |
 | Please cite                                     |
 |                                                 |
 |     "First principles methods using CASTEP"     |
 |                                                 |
 |         Zeitschrift fuer Kristallographie       |
 |           220(5-6) pp. 567-570 (2005)           |
 |                                                 |
 | S. J. Clark, M. D. Segall, C. J. Pickard,       |
 | P. J. Hasnip, M. J. Probert, K. Refson,         |
 | M. C. Payne                                     |
 |                                                 |
 |       in all publications arising from          |
 |              your use of CASTEP                 |
 |                                                 |
 +-------------------------------------------------+
 |                                                 |
 |              http://www.castep.org              |
 |                                                 |
 +-------------------------------------------------+
 
 
 
 Compiled for linux_x86_64_ifort on Wed, 25 Aug 2021 18:50:38 +0100
 from code version e772bf432+  HEAD  Sat Apr 3 17:41:32 2021 +0100
 Compiler: Intel Fortran 19.0.5.281; Optimisation: fast
 MATHLIBS: Intel MKL(2019.0.5) (LAPACK version 3.7.0)
 FFT Lib : mkl
 Fundamental constants values: CODATA 2014
 
 Run started: Fri, 16 Dec 2022 14:08:34 +0000
 
 Atomic calculation performed for P: 1s2 2s2 2p6 3s2 3p3
 
 Exceeded max iterations: converged to -0.000003405 eV
 The ae energy is -9309.074 eV
 
   ============================================================                
   | Pseudopotential Report - Date of generation 16-12-2022   |                
   ------------------------------------------------------------                
   | Element: P Ionic charge:  5.00 Level of theory: RSCAN    |                
   | Atomic Solver: Koelling-Harmon                           |                
   |                                                          |                
   |               Reference Electronic Structure             |                
   |         Orbital         Occupation         Energy        |                
   |            3s              2.000           -0.535        |                
   |            3p              3.000           -0.209        |                
   |                                                          |                
   |                 Pseudopotential Definition               |                
   |        Beta     l      e      Rc     scheme   norm       |                
   |          1      0   -0.535   1.807     qc      0         |                
   |          2      0    0.250   1.807     qc      0         |                
   |          3      1   -0.209   1.807     qc      0         |                
   |          4      1    0.250   1.807     qc      0         |                
   |          5      2    0.000   1.807     qc      0         |                
   |          6      2    0.250   1.807     qc      0         |                
   |         loc     3    0.000   1.807     pn      0         |                
   |                                                          |                
   | Augmentation charge Rinner = 1.263                       |                
   | Partial core correction Rc = 1.263                       |                
   ------------------------------------------------------------                
   | "3|1.8|4|4|5|30:31:32"                                   |                
   ------------------------------------------------------------                
   |      Author: Chris J. Pickard, Cambridge University      |                
   ============================================================                
 Warning: ion_atom_output_psp cannot write out meta-GGA pseudopotentials present
 ly.
 
 Atomic calculation performed for In:
 1s2 2s2 2p6 3s2 3p6 3d10 4s2 4p6 4d10 5s2 5p1
 
 Exceeded max iterations: converged to -0.000725459 eV
 The ae energy is -160093.321 eV
 
   ============================================================                
   | Pseudopotential Report - Date of generation 16-12-2022   |                
   ------------------------------------------------------------                
   | Element: In Ionic charge: 13.00 Level of theory: RSCAN   |                
   | Atomic Solver: Koelling-Harmon                           |                
   |                                                          |                
   |               Reference Electronic Structure             |                
   |         Orbital         Occupation         Energy        |                
   |            4d             10.000           -0.711        |                
   |            5s              2.000           -0.313        |                
   |            5p              1.000           -0.095        |                
   |                                                          |                
   |                 Pseudopotential Definition               |                
   |        Beta     l      e      Rc     scheme   norm       |                
   |          1      0   -0.313   2.501     qc      0         |                
   |          2      0    0.250   2.501     qc      0         |                
   |          3      1   -0.095   2.501     qc      0         |                
   |          4      1    0.250   2.501     qc      0         |                
   |          5      2   -0.711   2.207     qc      0         |                
   |          6      2    0.250   2.207     qc      0         |                
   |         loc     3    0.000   2.501     pn      0         |                
   |                                                          |                
   | Augmentation charge Rinner = 1.504                       |                
   | Partial core correction Rc = 1.504                       |                
   ------------------------------------------------------------                
   | "3|2.5|2.5|1.5|7|8|9|50:51:42U2.2U2.2"                   |                
   ------------------------------------------------------------                
   |      Author: Chris J. Pickard, Cambridge University      |                
   ============================================================                
 Warning: ion_atom_output_psp cannot write out meta-GGA pseudopotentials present
 ly.
 
 Pseudo atomic calculation performed for P 3s2 3p3
 
 Converged in 23 iterations to a total energy of -208.0292 eV
 
 Pseudo atomic calculation performed for In 4d10 5s2 5p1
 
 Converged in 42 iterations to a total energy of -1747.4504 eV
 Calculation parallelised over 32 processes.
 Data is distributed by k-point(32-way)

 ************************************ Title ************************************
 

 ***************************** General Parameters ******************************
  
 output verbosity                               : normal  (1)
 write checkpoint data to                       : WZ_EOS_0.8591.check
 type of calculation                            : single point energy
 stress calculation                             : on
 density difference calculation                 : off
 electron localisation func (ELF) calculation   : off
 Hirshfeld analysis                             : off
 molecular orbital projected DOS                : off
 deltaSCF calculation                           : off
 unlimited duration calculation
 timing information                             : on
 memory usage estimate                          : on
 write extra output files                       : on
 write final potential to formatted file        : off
 write final density to formatted file          : off
 write BibTeX reference list                    : on
 write OTFG pseudopotential files               : on
 write electrostatic potential file             : on
 write bands file                               : on
 checkpoint writing                             : off
  
 output         length unit                     : A
 output           mass unit                     : amu
 output           time unit                     : ps
 output         charge unit                     : e
 output           spin unit                     : hbar/2
 output         energy unit                     : eV
 output          force unit                     : eV/A
 output       velocity unit                     : A/ps
 output       pressure unit                     : GPa
 output     inv_length unit                     : 1/A
 output      frequency unit                     : cm-1
 output force constant unit                     : eV/A**2
 output         volume unit                     : A**3
 output   IR intensity unit                     : (D/A)**2/amu
 output         dipole unit                     : D
 output         efield unit                     : eV/A/e
 output        entropy unit                     : J/mol/K
 output    efield chi2 unit                     : pm/V
  
 wavefunctions paging                           : none
 random number generator seed                   : randomised (140834530)
 data distribution                              : optimal for this architecture
 optimization strategy                          : balance speed and memory

 *********************** Exchange-Correlation Parameters ***********************
  
 using functional                               : RSCAN
 relativistic treatment                         : Koelling-Harmon
 DFT+D: Semi-empirical dispersion correction    : off

 ************************* Pseudopotential Parameters **************************
  
 pseudopotential representation                 : reciprocal space
 <beta|phi> representation                      : reciprocal space
 spin-orbit coupling                            : off

 **************************** Basis Set Parameters *****************************
  
 plane wave basis set cut-off                   :   900.0000   eV
 size of standard grid                          :     1.7500
 size of   fine   gmax                          :    26.8966   1/A
 finite basis set correction                    : automatic
 number of sample energies                      :          3
           sample  spacing                      :     5.0000   eV

 **************************** Electronic Parameters ****************************
  
 number of  electrons                           :  36.00    
 net charge of system                           :  0.000    
 treating system as non-spin-polarized
 number of bands                                :         22

 ********************* Electronic Minimization Parameters **********************
  
 Method: Treating system as metallic with density mixing treatment of electrons,
         and number of  SD  steps               :          1
         and number of  CG  steps               :          4
  
 total energy / atom convergence tol.           : 0.1000E-07   eV
 eigen-energy convergence tolerance             : 0.2222E-08   eV
 max force / atom convergence tol.              : ignored
 convergence tolerance window                   :          3   cycles
 max. number of SCF cycles                      :         30
 number of fixed-spin iterations                :         10
 smearing scheme                                : Gaussian
 smearing width                                 : 0.2000       eV
 Fermi energy convergence tolerance             : 0.2721E-13   eV
 periodic dipole correction                     : NONE

 ************************** Density Mixing Parameters **************************
  
 density-mixing scheme                          : Broyden
 max. length of mixing history                  :         20
 charge density mixing amplitude                : 0.8000    
 cut-off energy for mixing                      :  900.0       eV

 *********************** Population Analysis Parameters ************************
  
 Population analysis with cutoff                :  3.000       A
 Population analysis output                     : summary and pdos components

 *******************************************************************************
  
 
                           -------------------------------
                                      Unit Cell
                           -------------------------------
        Real Lattice(A)                      Reciprocal Lattice(1/A)
     3.5778570    -0.0000370     0.0000000        1.756120436  -1.013872314   0.000000000
     1.7888960     3.0985330     0.0000000        0.000020970   2.027781468   0.000000000
     0.0000000     0.0000000     5.8756140        0.000000000   0.000000000   1.069366590
 
                       Lattice parameters(A)       Cell Angles
                    a =      3.577857          alpha =   90.000000
                    b =      3.577856          beta  =   90.000000
                    c =      5.875614          gamma =   60.001187
 
                       Current cell volume =            65.138080       A**3
                                   density =             4.476391   AMU/A**3
                                           =             7.433222     g/cm^3
 
                           -------------------------------
                                     Cell Contents
                           -------------------------------
                         Total number of ions in cell =    4
                      Total number of species in cell =    2
                        Max number of any one species =    2
 
            xxxxxxxxxxxxxxxxxxxxxxxxxxxxxxxxxxxxxxxxxxxxxxxxxxxxxxxxxxxx
            x  Element    Atom        Fractional coordinates of atoms  x
            x            Number           u          v          w      x
            x----------------------------------------------------------x
            x  P            1         0.333329   0.333331  -0.000013   x 
            x  P            2         0.666669   0.666671   0.499987   x 
            x  In           1         0.333331   0.333333   0.374443   x 
            x  In           2         0.666667   0.666669   0.874443   x 
            xxxxxxxxxxxxxxxxxxxxxxxxxxxxxxxxxxxxxxxxxxxxxxxxxxxxxxxxxxxx
 
 
                         No user defined ionic velocities
 
                           -------------------------------
                                   Details of Species
                           -------------------------------
 
                               Mass of species in AMU
                                    P   30.9737600
                                    In  114.8180000
 
                          Electric Quadrupole Moment (Barn)
                                    P    1.0000000 No Isotope Defined
                                    In    0.7700000 Isotope115
 
                          Files used for pseudopotentials:
                                    P 3|1.8|4|4|5|30:31:32
                                    In 3|2.5|2.5|1.5|7|8|9|50:51:42U2.2U2.2
 
                           -------------------------------
                              k-Points For BZ Sampling
                           -------------------------------
                       MP grid size for SCF calculation is 11 11  7
                            with an offset of   0.045  0.045  0.071
                       Number of kpoints used =           424
 
                           -------------------------------
                               Symmetry and Constraints
                           -------------------------------
 
                      Maximum deviation from symmetry =  0.00000         ANG
 
                      Number of symmetry operations   =           1
                      Number of ionic constraints     =           3
                      Point group of crystal =     1: C1, 1, 1
                      Space group of crystal =   186: P6_3mc, P 6c -2c
 
             Set iprint > 1 for details on symmetry rotations/translations
 
                         Centre of mass is constrained
             Set iprint > 1 for details of linear ionic constraints
 
                         Number of cell constraints= 0
                         Cell constraints are:  1 2 3 4 5 6
 
                         External pressure/stress (GPa)
                          0.00000   0.00000   0.00000
                                    0.00000   0.00000
                                              0.00000
  
+---------------- MEMORY AND SCRATCH DISK ESTIMATES PER PROCESS --------------+
|                                                     Memory          Disk    |
| Baseline code, static data and system overhead      394.0 MB         0.0 MB |
| BLAS internal memory storage                          0.0 MB         0.0 MB |
| Model and support data                              218.8 MB       294.2 MB |
| Electronic energy minimisation requirements          58.8 MB         0.0 MB |
| Force calculation requirements                        8.0 MB         0.0 MB |
| Stress calculation requirements                       8.9 MB         0.0 MB |
|                                               ----------------------------- |
| Approx. total storage required per process          671.6 MB       294.2 MB |
|                                                                             |
| Requirements will fluctuate during execution and may exceed these estimates |
+-----------------------------------------------------------------------------+
Calculating finite basis set correction with  3 cut-off energies.
Calculating total energy with cut-off of  890.000 eV.
------------------------------------------------------------------------ <-- SCF
SCF loop      Energy           Fermi           Energy gain       Timer   <-- SCF
                               energy          per atom          (sec)   <-- SCF
------------------------------------------------------------------------ <-- SCF
Initial  -3.11202906E+003  0.00000000E+000                        19.05  <-- SCF
      1  -3.81850807E+003  8.53827653E+000   1.76619753E+002      31.88  <-- SCF
      2  -3.90533270E+003  8.36664369E+000   2.17061569E+001      40.69  <-- SCF
      3  -3.90717437E+003  8.12165433E+000   4.60417059E-001      49.82  <-- SCF
      4  -3.92395765E+003  8.58753019E+000   4.19582084E+000      60.70  <-- SCF
      5  -3.92396409E+003  8.58737635E+000   1.61019638E-003      71.91  <-- SCF
      6  -3.92422313E+003  8.65488120E+000   6.47591876E-002      82.83  <-- SCF
      7  -3.92329152E+003  8.84113182E+000  -2.32902966E-001      93.93  <-- SCF
      8  -3.92336661E+003  8.89368606E+000   1.87731799E-002     105.50  <-- SCF
      9  -3.92336627E+003  8.89847909E+000  -8.42065854E-005     117.07  <-- SCF
     10  -3.92336655E+003  8.90413027E+000   6.91250915E-005     128.43  <-- SCF
     11  -3.92336657E+003  8.90574834E+000   6.11608354E-006     139.82  <-- SCF
     12  -3.92336657E+003  8.90563307E+000   2.19618791E-008     150.11  <-- SCF
     13  -3.92336657E+003  8.90565709E+000   2.44817905E-009     157.79  <-- SCF
     14  -3.92336657E+003  8.90565788E+000   6.93347817E-010     165.37  <-- SCF
------------------------------------------------------------------------ <-- SCF
 
Final energy, E             =  -3923.366573176     eV
Final free energy (E-TS)    =  -3923.366573215     eV
(energies not corrected for finite basis set)
 
NB est. 0K energy (E-0.5TS)      =  -3923.366573195     eV
 
Calculating total energy with cut-off of  895.000 eV.
------------------------------------------------------------------------ <-- SCF
SCF loop      Energy           Fermi           Energy gain       Timer   <-- SCF
                               energy          per atom          (sec)   <-- SCF
------------------------------------------------------------------------ <-- SCF
Initial  -3.92336657E+003  0.00000000E+000                       168.03  <-- SCF
      1  -3.92336658E+003  8.90565582E+000   2.89498139E-006     178.41  <-- SCF
      2  -3.92336658E+003  8.90565582E+000   7.46325313E-011     185.97  <-- SCF
      3  -3.92336658E+003  8.90565582E+000   8.93656890E-010     194.00  <-- SCF
      4  -3.92336658E+003  8.90565515E+000   4.91105258E-011     201.43  <-- SCF
------------------------------------------------------------------------ <-- SCF
 
Final energy, E             =  -3923.366584723     eV
Final free energy (E-TS)    =  -3923.366584761     eV
(energies not corrected for finite basis set)
 
NB est. 0K energy (E-0.5TS)      =  -3923.366584742     eV
 
Calculating total energy with cut-off of  900.000 eV.
------------------------------------------------------------------------ <-- SCF
SCF loop      Energy           Fermi           Energy gain       Timer   <-- SCF
                               energy          per atom          (sec)   <-- SCF
------------------------------------------------------------------------ <-- SCF
Initial  -3.92336658E+003  0.00000000E+000                       204.38  <-- SCF
      1  -3.92336659E+003  8.90565526E+000   2.50967664E-006     214.70  <-- SCF
      2  -3.92336659E+003  8.90565526E+000   1.29543513E-011     222.24  <-- SCF
      3  -3.92336659E+003  8.90565514E+000   7.62373241E-010     230.28  <-- SCF
      4  -3.92336659E+003  8.90565505E+000   4.02164936E-011     237.72  <-- SCF
------------------------------------------------------------------------ <-- SCF
 
Final energy, E             =  -3923.366594728     eV
Final free energy (E-TS)    =  -3923.366594766     eV
(energies not corrected for finite basis set)
 
NB est. 0K energy (E-0.5TS)      =  -3923.366594747     eV
 
 For future reference: finite basis dEtot/dlog(Ecut) =      -0.001930eV
 Total energy corrected for finite basis set =   -3923.366595 eV
 
 ************************** Forces **************************
 *                                                          *
 *               Cartesian components (eV/A)                *
 * -------------------------------------------------------- *
 *                         x            y            z      *
 *                                                          *
 * P               1     -0.00003     -0.00002      0.24727 *
 * P               2      0.00006      0.00003      0.24727 *
 * In              1     -0.00003     -0.00001     -0.24727 *
 * In              2      0.00001      0.00001     -0.24727 *
 *                                                          *
 ************************************************************
 
 ***************** Stress Tensor *****************
 *                                               *
 *          Cartesian components (GPa)           *
 * --------------------------------------------- *
 *             x             y             z     *
 *                                               *
 *  x    -83.515854      0.002205     -0.000057  *
 *  y      0.002205    -83.518382     -0.000001  *
 *  z     -0.000057     -0.000001    -84.668810  *
 *                                               *
 *  Pressure:   83.9010                          *
 *                                               *
 *************************************************
 
 Pseudo atomic calculation performed for P 3s2 3p3
 
 Converged in 23 iterations to a total energy of -208.0292 eV
 
 Pseudo atomic calculation performed for In 4d10 5s2 5p1
 
 Converged in 42 iterations to a total energy of -1747.4504 eV
Charge spilling parameter for spin component 1 = 0.26%
 
            Orbital Populations       
     Ion    Atom   Orbital             Charge
  -------------------------------------------
      P     1      S                    1.606
      P     1      Px                   1.383
      P     1      Py                   1.383
      P     1      Pz                   1.381
      P     2      S                    1.606
      P     2      Px                   1.383
      P     2      Py                   1.383
      P     2      Pz                   1.381
     In     1      Dzz                  1.988
     In     1      Dzy                  1.993
     In     1      Dzx                  1.993
     In     1      Dxx-yy               1.990
     In     1      Dxy                  1.990
     In     1      S                    1.642
     In     1      Px                   0.567
     In     1      Py                   0.567
     In     1      Pz                   0.560
     In     1      S                   -1.043
     In     2      Dzz                  1.988
     In     2      Dzy                  1.993
     In     2      Dzx                  1.993
     In     2      Dxx-yy               1.990
     In     2      Dxy                  1.990
     In     2      S                    1.642
     In     2      Px                   0.567
     In     2      Py                   0.567
     In     2      Pz                   0.560
     In     2      S                   -1.043
  -------------------------------------------
                           Total:      36.000
  -------------------------------------------
 
     Atomic Populations (Mulliken)
     -----------------------------
Species          Ion     s      p      d      f     Total  Charge (e)
=====================================================================
  P               1     1.61   4.15   0.00   0.00   5.75    -0.75
  P               2     1.61   4.15   0.00   0.00   5.75    -0.75
  In              1     0.60   1.69   9.95   0.00  12.25     0.75
  In              2     0.60   1.69   9.95   0.00  12.25     0.75
=====================================================================
 
                 Bond                   Population      Length (A)
======================================================================
               P 1 -- In 2                   2.59        2.19344
               P 2 -- In 1                   2.59        2.19344
               P 2 -- In 2                  -0.05        2.20016
               P 1 -- In 1                  -0.05        2.20016
======================================================================
 
 
 A BibTeX formatted list of references used in this run has been written to 
 WZ_EOS_0.8591.bib
 
Initialisation time =     16.28 s
Calculation time    =    240.88 s
Finalisation time   =      0.13 s
Total time          =    257.29 s
Peak Memory Use     = 1337956 kB
  
Overall parallel efficiency rating: Excellent (92%)                             
  
Data was distributed by:-
k-point (32-way); efficiency rating: Excellent (93%)                            
  
Parallel notes:
1) Calculation only took 257.2 s, so efficiency estimates may be inaccurate.    
