 +-------------------------------------------------+
 |                                                 |
 |      CCC   AA    SSS  TTTTT  EEEEE  PPPP        |
 |     C     A  A  S       T    E      P   P       |
 |     C     AAAA   SS     T    EEE    PPPP        |
 |     C     A  A     S    T    E      P           |
 |      CCC  A  A  SSS     T    EEEEE  P           |
 |                                                 |
 +-------------------------------------------------+
 |                                                 |
 | Welcome to Academic Release CASTEP version 24.1 |
 | Ab Initio Total Energy Program                  |
 |                                                 |
 | Authors:                                        |
 | M. Segall, M. Probert, C. Pickard, P. Hasnip,   |
 | S. Clark, K. Refson, J. R. Yates,               |
 | A. Bartok-Partay, M. Payne                      |
 |                                                 |
 | Contributors:                                   |
 | P. Lindan, P. Haynes, J. White, V. Milman,      |
 | N. Govind, M. Gibson, P. Tulip, V. Cocula,      |
 | B. Montanari, D. Quigley, M. Glover,            |
 | L. Bernasconi, A. Perlov, M. Plummer,           |
 | E. McNellis, J. Meyer, J. Gale, D. Jochym       |
 | J. Aarons, B. Walker, R. Gillen, D. Jones       |
 | T. Green, I. J. Bush, C. J. Armstrong,          |
 | E. J. Higgins, E. L. Brown, M. S. McFly,        |
 | J. Wilkins, B-C. Shih, P. J. P. Byrne,          |
 | R. J. Maurer, J. C. Womack, J. Dziedzic,        |
 | L. LeBlanc, T. K. Stenczel, J. Kermode,         |
 | S. Sturniolo, B. Shi, B. Durham, M. Evans,      |
 | M. J. Smith, A. Tamerus, Z. Hawkhead,           |
 | V. Ravindran, T. Hollins, S. A. Joyce,          |
 | R. T. Strong, A. M. Reilly, S. J. Donaldson     |
 |                                                 |
 | Copyright (c) 2000 - 2023                       |
 |                                                 |
 |     Distributed under license from Cambridge    |
 |     Enterprise for academic use only.           |
 |                                                 |
 | Please cite                                     |
 |                                                 |
 |     "First principles methods using CASTEP"     |
 |                                                 |
 |         Zeitschrift fuer Kristallographie       |
 |           220(5-6) pp. 567-570 (2005)           |
 |                                                 |
 | S. J. Clark, M. D. Segall, C. J. Pickard,       |
 | P. J. Hasnip, M. J. Probert, K. Refson,         |
 | M. C. Payne                                     |
 |                                                 |
 |       in all publications arising from          |
 |              your use of CASTEP                 |
 |                                                 |
 +-------------------------------------------------+
 |                                                 |
 |              http://www.castep.org              |
 |                                                 |
 +-------------------------------------------------+



 Compiled for  GNU 11.2.0 on 04-04-2024 18:39:17
 from code version 6355fd106 Castep241_branch Thu Mar 7 17:56:19 2024 +0000
 Compiler: GNU Fortran 11.2.0; Optimisation: FAST
 Comms   : MPI VERSION : CRAY MPICH version 8.1.23.14 (ANL base 3.4a2)
 MATHLIBS: default (LAPACK version 3.10.1)
 FFT Lib : fftw3 version commercial-fftw-3.3.10-sse2-avx-avx2-avx2_128
 Fundamental constants values: CODATA 2018

 Run started: Sun, 27 Apr 2025 07:34:51 +0100

 Atomic calculation performed for P: 1s2 2s2 2p6 3s2 3p3

 Converged in 47 iterations to an ae energy of -9309.074 eV

   ============================================================                
   | Pseudopotential Report - Date of generation 27-04-2025   |                
   ------------------------------------------------------------                
   | Element: P Ionic charge:  5.00 Level of theory: RSCAN    |                
   | Atomic Solver: Koelling-Harmon                           |                
   |                                                          |                
   |               Reference Electronic Structure             |                
   |         Orbital         Occupation         Energy        |                
   |            3s              2.000           -0.535        |                
   |            3p              3.000           -0.209        |                
   |                                                          |                
   |                 Pseudopotential Definition               |                
   |        Beta     l      e      Rc     scheme   norm       |                
   |          1      0   -0.535   1.807     qc      0         |                
   |          2      0    0.250   1.807     qc      0         |                
   |          3      1   -0.209   1.807     qc      0         |                
   |          4      1    0.250   1.807     qc      0         |                
   |          5      2    0.000   1.807     qc      0         |                
   |          6      2    0.250   1.807     qc      0         |                
   |         loc     3    0.000   1.807     pn      0         |                
   |                                                          |                
   | Augmentation charge Rinner = 1.263                       |                
   | Partial core correction Rc = 1.263                       |                
   ------------------------------------------------------------                
   | "3|1.8|4|4|5|30:31:32"                                   |                
   ------------------------------------------------------------                
   |      Author: Chris J. Pickard, Cambridge University      |                
   ============================================================                
 Warning: otfg_output_psp cannot write out meta-GGA pseudopotentials presently.

 Atomic calculation performed for In:
 1s2 2s2 2p6 3s2 3p6 3d10 4s2 4p6 4d10 5s2 5p1

 Converged in 84 iterations to an ae energy of -160093.328 eV

   ============================================================                
   | Pseudopotential Report - Date of generation 27-04-2025   |                
   ------------------------------------------------------------                
   | Element: In Ionic charge: 13.00 Level of theory: RSCAN   |                
   | Atomic Solver: Koelling-Harmon                           |                
   |                                                          |                
   |               Reference Electronic Structure             |                
   |         Orbital         Occupation         Energy        |                
   |            4d             10.000           -0.711        |                
   |            5s              2.000           -0.313        |                
   |            5p              1.000           -0.095        |                
   |                                                          |                
   |                 Pseudopotential Definition               |                
   |        Beta     l      e      Rc     scheme   norm       |                
   |          1      0   -0.313   2.501     qc      0         |                
   |          2      0    0.250   2.501     qc      0         |                
   |          3      1   -0.095   2.501     qc      0         |                
   |          4      1    0.250   2.501     qc      0         |                
   |          5      2   -0.711   2.207     qc      0         |                
   |          6      2    0.250   2.207     qc      0         |                
   |         loc     3    0.000   2.501     pn      0         |                
   |                                                          |                
   | Augmentation charge Rinner = 1.504                       |                
   | Partial core correction Rc = 1.504                       |                
   ------------------------------------------------------------                
   | "3|2.5|2.5|1.5|7|8|9|50:51:42U2.2U2.2"                   |                
   ------------------------------------------------------------                
   |      Author: Chris J. Pickard, Cambridge University      |                
   ============================================================                
 Warning: otfg_output_psp cannot write out meta-GGA pseudopotentials presently.

 Pseudo atomic calculation performed for P 3s2 3p3

 Converged in 23 iterations to a total energy of -208.0292 eV

 Pseudo atomic calculation performed for In 4d10 5s2 5p1

 Converged in 42 iterations to a total energy of -1747.4501 eV
 Calculation parallelised over 108 processes.
 Data is distributed by G-vector(3-way) and k-point(36-way)
 Each process may use up to 16 threads.

 ************************************ Title ************************************
 

 ***************************** General Parameters ******************************
  
 output verbosity                               : normal  (1)
 write checkpoint data to                       : In_Vacancy_Migration_15->60_Singlepoints_5.check
 type of calculation                            : single point energy
 stress calculation                             : off
 density difference calculation                 : off
 electron localisation func (ELF) calculation   : off
 Hirshfeld analysis                             : on
 polarisation (Berry phase) analysis            : off
 molecular orbital projected DOS                : off
 deltaSCF calculation                           : off
 unlimited duration calculation
 timing information                             : on
 memory usage estimate                          : on
 write extra output files                       : on
 write final potential to formatted file        : off
 write final density to formatted file          : off
 write BibTeX reference list                    : on
 write OTFG pseudopotential files               : on
 write electrostatic potential file             : on
 write bands file                               : on
 checkpoint writing                             : off
  
 output         length unit                     : A
 output           mass unit                     : amu
 output           time unit                     : ps
 output         charge unit                     : e
 output           spin unit                     : hbar/2
 output         energy unit                     : eV
 output          force unit                     : eV/A
 output       velocity unit                     : A/ps
 output       pressure unit                     : GPa
 output     inv_length unit                     : 1/A
 output      frequency unit                     : cm-1
 output force constant unit                     : eV/A**2
 output         volume unit                     : A**3
 output   IR intensity unit                     : (D/A)**2/amu
 output         dipole unit                     : D
 output         efield unit                     : eV/A/e
 output        entropy unit                     : J/mol/K
 output    efield chi2 unit                     : pm/V
  
 wavefunctions paging                           : none
 random number generator seed                   :   73451814
 data distribution                              : optimal for this architecture
 optimization strategy                          : balance speed and memory

 *********************** Exchange-Correlation Parameters ***********************
  
 using functional                               : RSCAN
 relativistic treatment                         : Koelling-Harmon
 DFT+D: Semi-empirical dispersion correction    : off

 ************************* Pseudopotential Parameters **************************
  
 pseudopotential representation                 : reciprocal space
 <beta|phi> representation                      : reciprocal space
 spin-orbit coupling                            : off

 **************************** Basis Set Parameters *****************************
  
 plane wave basis set cut-off                   :   900.0000   eV
 size of standard grid                          :     2.0000
 size of   fine   gmax                          :    30.7390   1/A
 finite basis set correction                    : none

 **************************** Electronic Parameters ****************************
  
 number of  electrons                           :  563.0    
 net charge of system                           :  0.000    
 net spin   of system                           :  1.000    
 number of  up  spins                           :  282.0    
 number of down spins                           :  281.0    
 treating system as spin-polarized
 number of bands                                :        338

 ********************* Electronic Minimization Parameters **********************
  
 Method: Treating system as metallic with density mixing treatment of electrons,
         and number of  SD  steps               :          1
         and number of  CG  steps               :          4
  
 total energy / atom convergence tol.           : 0.1000E-07   eV
 eigen-energy convergence tolerance             : 0.2234E-08   eV
 max force / atom convergence tol.              : ignored
 convergence tolerance window                   :          3   cycles
 max. number of SCF cycles                      :        100
 number of fixed-spin iterations                :         10
 smearing scheme                                : Gaussian
 smearing width                                 : 0.2000       eV
 Fermi energy convergence tolerance             : 0.2721E-13   eV
 periodic dipole correction                     : NONE

 ************************** Density Mixing Parameters **************************
  
 density-mixing scheme                          : Pulay
 max. length of mixing history                  :         20
 charge density mixing amplitude                : 0.5000    
   spin density mixing amplitude                :  2.000    
 cut-off energy for mixing                      :  900.0       eV

 *********************** Population Analysis Parameters ************************
  
 Population analysis with cutoff                :  3.000       A
 Population analysis output                     : summary and pdos components

 *******************************************************************************
  

                           -------------------------------
                                      Unit Cell
                           -------------------------------
        Real Lattice(A)                      Reciprocal Lattice(1/A)
    11.8016820    -0.0000080    -0.0000080        0.532397442   0.000000361   0.000000361
    -0.0000080    11.8016820    -0.0000080        0.000000361   0.532397442   0.000000361
    -0.0000080    -0.0000080    11.8016820        0.000000361   0.000000361   0.532397442

                       Lattice parameters(A)       Cell Angles
                    a =     11.801682          alpha =   90.000078
                    b =     11.801682          beta  =   90.000078
                    c =     11.801682          gamma =   90.000078

                       Current cell volume =          1643.734705       A**3
                                   density =             2.768402   AMU/A**3
                                           =             4.597040     g/cm^3

                           -------------------------------
                                     Cell Contents
                           -------------------------------
                         Total number of ions in cell =   63
                      Total number of species in cell =    2
                        Max number of any one species =   32

            xxxxxxxxxxxxxxxxxxxxxxxxxxxxxxxxxxxxxxxxxxxxxxxxxxxxxxxxxxxx
            x  Element    Atom        Fractional coordinates of atoms  x
            x            Number           u          v          w      x
            x----------------------------------------------------------x
            x  P            1         0.127187   0.127187   0.391021   x 
            x  P            2         0.372006   0.124312   0.133666   x 
            x  P            3         0.124312   0.372006   0.133666   x 
            x  P            4         0.433519   0.433519   0.333303   x 
            x  P            5         0.125813   0.125813   0.874379   x 
            x  P            6         0.368353   0.140934   0.613484   x 
            x  P            7         0.140934   0.368353   0.613484   x 
            x  P            8         0.371268   0.371268   0.876345   x 
            x  P            9         0.122906   0.622928   0.375330   x 
            x  P           10         0.372082   0.632199   0.112516   x 
            x  P           11         0.124528   0.875745   0.124632   x 
            x  P           12         0.372645   0.872295   0.377126   x 
            x  P           13         0.113815   0.625467   0.881699   x 
            x  P           14         0.363663   0.621377   0.635999   x 
            x  P           15         0.122550   0.873884   0.626316   x 
            x  P           16         0.372899   0.882412   0.866823   x 
            x  P           17         0.622928   0.122906   0.375330   x 
            x  P           18         0.875745   0.124528   0.124632   x 
            x  P           19         0.632199   0.372082   0.112516   x 
            x  P           20         0.872295   0.372645   0.377126   x 
            x  P           21         0.625467   0.113815   0.881699   x 
            x  P           22         0.873884   0.122550   0.626316   x 
            x  P           23         0.621377   0.363663   0.635999   x 
            x  P           24         0.882412   0.372899   0.866823   x 
            x  P           25         0.599459   0.599459   0.378817   x 
            x  P           26         0.870431   0.622081   0.128554   x 
            x  P           27         0.622081   0.870431   0.128554   x 
            x  P           28         0.869200   0.869200   0.373657   x 
            x  P           29         0.623767   0.623767   0.872381   x 
            x  P           30         0.871991   0.622715   0.619910   x 
            x  P           31         0.622715   0.871991   0.619910   x 
            x  P           32         0.872226   0.872226   0.876767   x 
            x  In           1        -0.000228  -0.000228  -0.002106   x 
            x  In           2         0.242187   0.000754   0.260169   x 
            x  In           3         0.000754   0.242187   0.260169   x 
            x  In           4         0.248784   0.248784   0.005455   x 
            x  In           5        -0.005022  -0.005022   0.498990   x 
            x  In           6         0.249874   0.011218   0.738187   x 
            x  In           7         0.011218   0.249874   0.738187   x 
            x  In           8         0.454631   0.454631   0.537931   x 
            x  In           9        -0.004516   0.493625   0.007295   x 
            x  In          10         0.250319   0.509396   0.244084   x 
            x  In          11        -0.000804   0.748987   0.248626   x 
            x  In          12         0.247937   0.757013  -0.009759   x 
            x  In          13         0.003183   0.492191   0.503313   x 
            x  In          14         0.234564   0.496840   0.759224   x 
            x  In          15        -0.005602   0.748683   0.748295   x 
            x  In          16         0.247539   0.746847   0.501893   x 
            x  In          17         0.493625  -0.004516   0.007295   x 
            x  In          18         0.748987  -0.000804   0.248626   x 
            x  In          19         0.509396   0.250319   0.244084   x 
            x  In          20         0.757013   0.247937  -0.009759   x 
            x  In          21         0.492191   0.003183   0.503313   x 
            x  In          22         0.748683  -0.005602   0.748295   x 
            x  In          23         0.496840   0.234564   0.759224   x 
            x  In          24         0.746847   0.247539   0.501893   x 
            x  In          25         0.498163   0.498163  -0.003145   x 
            x  In          26         0.743701   0.496531   0.252325   x 
            x  In          27         0.496531   0.743701   0.252325   x 
            x  In          28         0.746685   0.746685   0.001441   x 
            x  In          29         0.750326   0.498380   0.748234   x 
            x  In          30         0.498380   0.750326   0.748234   x 
            x  In          31         0.735988   0.735988   0.488881   x 
            xxxxxxxxxxxxxxxxxxxxxxxxxxxxxxxxxxxxxxxxxxxxxxxxxxxxxxxxxxxx


                         No user defined ionic velocities

                           -------------------------------
                                   Details of Species
                           -------------------------------

                               Mass of species in AMU
                                    P   30.9737600
                                    In  114.8180000

                          Electric Quadrupole Moment (Barn)
                                    P    1.0000000 No Isotope Defined
                                    In    0.7700000 Isotope115

                          Files used for pseudopotentials:
                                    P 3|1.8|4|4|5|30:31:32
                                    In 3|2.5|2.5|1.5|7|8|9|50:51:42U2.2U2.2

                           -------------------------------
                              k-Points For BZ Sampling
                           -------------------------------
                       MP grid size for SCF calculation is  4  4  4
                            with an offset of   0.125  0.125  0.125
                       Number of kpoints used =            36

                           -------------------------------
                               Symmetry and Constraints
                           -------------------------------

                      Maximum deviation from symmetry =  0.00000         ANG

                      Number of symmetry operations   =           1
                      Number of ionic constraints     =           3
                      Point group of crystal =     1: C1, 1, 1
                      Space group of crystal =     8: Cm, C -2y

             Set iprint > 1 for details on symmetry rotations/translations

                         Centre of mass is constrained
             Set iprint > 1 for details of linear ionic constraints

                         Number of cell constraints= 0
                         Cell constraints are:  1 2 3 4 5 6

                         External pressure/stress (GPa)
                          0.00000   0.00000   0.00000
                                    0.00000   0.00000
                                              0.00000
 
+---------------- MEMORY AND SCRATCH DISK ESTIMATES PER PROCESS --------------+
|                                                     Memory          Disk    |
| Baseline code, static data and system overhead      368.0 MB         0.0 MB |
| BLAS internal memory storage                          0.0 MB         0.0 MB |
| Model and support data                             4296.9 MB         0.0 MB |
| Electronic energy minimisation requirements        1299.4 MB         0.0 MB |
| Force calculation requirements                      127.4 MB         0.0 MB |
|                                               ----------------------------- |
| Approx. total storage required per process         5964.3 MB         0.0 MB |
|                                                                             |
| Requirements will fluctuate during execution and may exceed these estimates |
+-----------------------------------------------------------------------------+
Calculating approximate eigenstates for fixed initial Hamiltonian
Cut-off for approx. calculation is   89.988 eV
Improving approx. states at cut-off of  450.000 eV
Resetting cut-off to  900.000 eV
Calculating total energy with cut-off of  900.000 eV.
------------------------------------------------------------------------ <-- SCF
SCF loop      Energy           Fermi           Energy gain       Timer   <-- SCF
                               energy          per atom          (sec)   <-- SCF
------------------------------------------------------------------------ <-- SCF
Initial  -6.12892028E+004  0.00000000E+000                       430.20  <-- SCF
      1  -6.10540018E+004  2.03317784E+000  -3.73334856E+000     864.57  <-- SCF
      2  -6.10543393E+004  2.03305981E+000   5.35706360E-003    1179.26  <-- SCF
      3  -6.11172592E+004  2.35288017E+000   9.98728965E-001    1512.79  <-- SCF
      4  -6.11284170E+004  2.42096232E+000   1.77108195E-001    1990.54  <-- SCF
      5  -6.11350009E+004  2.50788227E+000   1.04505164E-001    2336.95  <-- SCF
      6  -6.11232292E+004  2.64698851E+000  -1.86851622E-001    2676.22  <-- SCF
      7  -6.11215648E+004  2.69337204E+000  -2.64193522E-002    3021.16  <-- SCF
      8  -6.11218809E+004  2.72905873E+000   5.01724606E-003    3371.93  <-- SCF
      9  -6.11227520E+004  2.74441647E+000   1.38271606E-002    3716.34  <-- SCF
     10  -6.11230063E+004  2.73048018E+000   4.03737804E-003    4053.04  <-- SCF
     11  -6.11230994E+004  2.73114299E+000   1.47641999E-003    4405.38  <-- SCF
     12  -6.11231378E+004  2.72967166E+000   6.09778686E-004    4751.70  <-- SCF
     13  -6.11231411E+004  2.72888851E+000   5.27155916E-005    5111.49  <-- SCF
     14  -6.11231415E+004  2.72778976E+000   6.19531758E-006    5469.27  <-- SCF
     15  -6.11231419E+004  2.72718167E+000   5.98302537E-006    5828.98  <-- SCF
     16  -6.11231423E+004  2.72657987E+000   7.07518199E-006    6181.53  <-- SCF
     17  -6.11231427E+004  2.72624547E+000   6.02274080E-006    6526.88  <-- SCF
     18  -6.11231434E+004  2.72580383E+000   1.06105534E-005    6883.27  <-- SCF
     19  -6.11231437E+004  2.72546486E+000   4.66020167E-006    7232.83  <-- SCF
     20  -6.11231440E+004  2.72485398E+000   5.99076815E-006    7583.17  <-- SCF
     21  -6.11231446E+004  2.72461056E+000   9.34670659E-006    7942.51  <-- SCF
     22  -6.11231449E+004  2.72407904E+000   4.26049391E-006    8299.15  <-- SCF
     23  -6.11231449E+004  2.72342714E+000   8.97999443E-007    8627.86  <-- SCF
     24  -6.11231450E+004  2.72433787E+000   8.24686199E-007    8966.04  <-- SCF
     25  -6.11231450E+004  2.72393378E+000   3.30230938E-007    9278.17  <-- SCF
     26  -6.11231448E+004  2.72432406E+000  -4.22921835E-006    9597.96  <-- SCF
     27  -6.11231497E+004  2.72410117E+000   7.86311731E-005    9905.91  <-- SCF
     28  -6.11231413E+004  2.72398059E+000  -1.33730851E-004   10227.08  <-- SCF
     29  -6.11231451E+004  2.72411530E+000   6.12993187E-005   10529.73  <-- SCF
     30  -6.11231460E+004  2.72405492E+000   1.44025311E-005   10816.87  <-- SCF
     31  -6.11231434E+004  2.72408560E+000  -4.17922034E-005   11091.05  <-- SCF
     32  -6.11231465E+004  2.72411711E+000   4.86198545E-005   11338.05  <-- SCF
     33  -6.11231454E+004  2.72411145E+000  -1.71769385E-005   11578.87  <-- SCF
     34  -6.11231456E+004  2.72412011E+000   2.77754375E-006   11815.82  <-- SCF
     35  -6.11231456E+004  2.72411484E+000   1.11607399E-006   12055.23  <-- SCF
     36  -6.11231454E+004  2.72411138E+000  -3.23924756E-006   12296.65  <-- SCF
     37  -6.11231454E+004  2.72411162E+000  -3.40332693E-009   12533.14  <-- SCF
     38  -6.11231454E+004  2.72411360E+000  -7.55501062E-007   12770.81  <-- SCF
     39  -6.11231453E+004  2.72411574E+000  -7.90662751E-007   13017.14  <-- SCF
     40  -6.11231453E+004  2.72411628E+000  -9.60428798E-008   13260.49  <-- SCF
     41  -6.11231453E+004  2.72411659E+000   2.54949983E-009   13499.92  <-- SCF
     42  -6.11231453E+004  2.72411783E+000  -1.05870043E-007   13731.77  <-- SCF
     43  -6.11231453E+004  2.72411752E+000   2.91527645E-007   13966.53  <-- SCF
     44  -6.11231453E+004  2.72411704E+000  -7.64496397E-008   14204.11  <-- SCF
     45  -6.11231453E+004  2.72411686E+000  -3.39306411E-007   14432.34  <-- SCF
     46  -6.11231453E+004  2.72411655E+000  -4.20663347E-007   14666.57  <-- SCF
     47  -6.11231453E+004  2.72411633E+000  -2.48412225E-007   14904.41  <-- SCF
     48  -6.11231453E+004  2.72411579E+000  -3.75161453E-008   15138.60  <-- SCF
     49  -6.11231453E+004  2.72411584E+000  -4.04938354E-008   15376.16  <-- SCF
     50  -6.11231453E+004  2.72411554E+000  -2.70768863E-007   15619.17  <-- SCF
     51  -6.11231452E+004  2.72411504E+000  -1.88035237E-007   15851.54  <-- SCF
     52  -6.11231452E+004  2.72411467E+000  -2.34345389E-007   16092.48  <-- SCF
     53  -6.11231452E+004  2.72411453E+000  -8.68599664E-008   16332.08  <-- SCF
     54  -6.11231452E+004  2.72411454E+000  -1.46773016E-007   16571.31  <-- SCF
     55  -6.11231452E+004  2.72411436E+000  -1.17851121E-007   16807.69  <-- SCF
     56  -6.11231452E+004  2.72411412E+000  -1.89961111E-007   17046.71  <-- SCF
     57  -6.11231452E+004  2.72411413E+000  -4.05808091E-007   17283.39  <-- SCF
     58  -6.11231452E+004  2.72411423E+000  -2.16825336E-009   17516.74  <-- SCF
     59  -6.11231451E+004  2.72411440E+000  -3.53614644E-007   17748.59  <-- SCF
     60  -6.11231451E+004  2.72411449E+000  -9.18880593E-009   17982.44  <-- SCF
     61  -6.11231452E+004  2.72411453E+000   8.51020293E-008   18217.35  <-- SCF
     62  -6.11231451E+004  2.72411447E+000  -5.06368378E-008   18444.50  <-- SCF
     63  -6.11231451E+004  2.72411439E+000  -2.60916559E-007   18676.87  <-- SCF
     64  -6.11231451E+004  2.72411447E+000   1.47993358E-007   18910.70  <-- SCF
     65  -6.11231451E+004  2.72411444E+000   3.58740946E-008   19145.45  <-- SCF
     66  -6.11231452E+004  2.72411439E+000   1.06682229E-007   19385.21  <-- SCF
     67  -6.11231452E+004  2.72411496E+000   2.55254430E-007   19615.82  <-- SCF
     68  -6.11231452E+004  2.72411527E+000   1.88645899E-007   19851.60  <-- SCF
     69  -6.11231452E+004  2.72411560E+000   4.44551846E-007   20081.07  <-- SCF
     70  -6.11231452E+004  2.72411579E+000   1.22081562E-007   20316.75  <-- SCF
     71  -6.11231453E+004  2.72411673E+000   7.63913233E-007   20556.13  <-- SCF
     72  -6.11231453E+004  2.72411730E+000  -2.17294774E-008   20792.22  <-- SCF
     73  -6.11231453E+004  2.72411787E+000  -1.72565587E-007   21029.79  <-- SCF
     74  -6.11231452E+004  2.72411797E+000  -2.65029935E-007   21266.52  <-- SCF
     75  -6.11231453E+004  2.72411799E+000   3.31939182E-007   21510.41  <-- SCF
     76  -6.11231453E+004  2.72411838E+000   2.83474722E-007   21750.75  <-- SCF
     77  -6.11231454E+004  2.72411860E+000   1.79313669E-006   21991.93  <-- SCF
     78  -6.11231454E+004  2.72411885E+000  -1.99523110E-007   22227.58  <-- SCF
     79  -6.11231454E+004  2.72411904E+000   4.49507068E-007   22461.89  <-- SCF
     80  -6.11231453E+004  2.72411918E+000  -1.02292749E-006   22694.78  <-- SCF
     81  -6.11231453E+004  2.72411859E+000  -5.05091468E-007   22923.64  <-- SCF
     82  -6.11231453E+004  2.72411800E+000  -4.25317461E-007   23156.06  <-- SCF
     83  -6.11231453E+004  2.72411893E+000   6.50461670E-007   23387.15  <-- SCF
     84  -6.11231453E+004  2.72411877E+000  -9.78439502E-007   23625.38  <-- SCF
     85  -6.11231453E+004  2.72411954E+000   6.55120105E-007   23859.61  <-- SCF
     86  -6.11231453E+004  2.72411984E+000   2.94027648E-007   24097.65  <-- SCF
     87  -6.11231453E+004  2.72411939E+000  -7.73223033E-007   24329.35  <-- SCF
     88  -6.11231452E+004  2.72411946E+000  -3.50005668E-007   24563.12  <-- SCF
     89  -6.11231453E+004  2.72411951E+000   5.51438350E-008   24796.66  <-- SCF
     90  -6.11231452E+004  2.72411934E+000  -2.72644651E-007   25032.45  <-- SCF
     91  -6.11231452E+004  2.72411931E+000  -1.53303900E-008   25266.63  <-- SCF
     92  -6.11231452E+004  2.72411932E+000  -9.09821816E-008   25494.31  <-- SCF
     93  -6.11231452E+004  2.72411934E+000  -2.13756115E-007   25722.77  <-- SCF
     94  -6.11231452E+004  2.72411942E+000  -3.11596805E-009   25955.10  <-- SCF
     95  -6.11231452E+004  2.72411939E+000  -1.00328122E-008   26190.83  <-- SCF
     96  -6.11231452E+004  2.72411936E+000  -7.35467847E-008   26427.82  <-- SCF
     97  -6.11231452E+004  2.72411942E+000  -5.25031974E-008   26658.39  <-- SCF
     98  -6.11231452E+004  2.72411927E+000  -6.96025238E-008   26888.57  <-- SCF
     99  -6.11231452E+004  2.72411914E+000  -5.51622982E-008   27129.62  <-- SCF
    100  -6.11231452E+004  2.72411899E+000  -3.32426886E-008   27368.51  <-- SCF
------------------------------------------------------------------------ <-- SCF
 *Warning* max. SCF cycles performed but system has not reached the groundstate.
  
Current total energy, E     =  -61122.94304512     eV
Current free energy (E-TS)  =  -61123.14519464     eV
(energies not corrected for finite basis set)
 
NB est. 0K energy (E-0.5TS)      =  -61123.04411988     eV
 
  ****************************************************************************
  Warning: electronic minimisation did not converge when finding ground state.
  ****************************************************************************
  Writing checkpoint file...
 
Overall parallel efficiency rating: Terrible (30%)
 
Data was distributed by:-
G-vector (3-way); efficiency rating: Terrible (33%)
k-point (36-way); efficiency rating: Good (79%)
