 +-------------------------------------------------+
 |                                                 |
 |      CCC   AA    SSS  TTTTT  EEEEE  PPPP        |
 |     C     A  A  S       T    E      P   P       |
 |     C     AAAA   SS     T    EEE    PPPP        |
 |     C     A  A     S    T    E      P           |
 |      CCC  A  A  SSS     T    EEEEE  P           |
 |                                                 |
 +-------------------------------------------------+
 |                                                 |
 | Welcome to Academic Release CASTEP version 22.11|
 | Ab Initio Total Energy Program                  |
 |                                                 |
 | Authors:                                        |
 | M. Segall, M. Probert, C. Pickard, P. Hasnip,   |
 | S. Clark, K. Refson, J. R. Yates, M. Payne      |
 |                                                 |
 | Contributors:                                   |
 | P. Lindan, P. Haynes, J. White, V. Milman,      |
 | N. Govind, M. Gibson, P. Tulip, V. Cocula,      |
 | B. Montanari, D. Quigley, M. Glover,            |
 | L. Bernasconi, A. Perlov, M. Plummer,           |
 | E. McNellis, J. Meyer, J. Gale, D. Jochym       |
 | J. Aarons, B. Walker, R. Gillen, D. Jones       |
 | T. Green, I. J. Bush, C. J. Armstrong,          |
 | E. J. Higgins, E. L. Brown, M. S. McFly,        |
 | J. Wilkins, B-C. Shih, P. J. P. Byrne,          |
 | R. J. Maurer, J. C. Womack, J. Dziedzic,        |
 | A. Bartok-Partay, L. LeBlanc, T. K. Stenczel,   |
 | J. Kermode, S. Sturniolo, B. Shi, B. Durham     |
 | M. Evans, M. J. Smith                           |
 |                                                 |
 | Copyright (c) 2000 - 2021                       |
 |                                                 |
 |     Distributed under license from Cambridge    |
 |     Enterprise for academic use only.           |
 |                                                 |
 | Please cite                                     |
 |                                                 |
 |     "First principles methods using CASTEP"     |
 |                                                 |
 |         Zeitschrift fuer Kristallographie       |
 |           220(5-6) pp. 567-570 (2005)           |
 |                                                 |
 | S. J. Clark, M. D. Segall, C. J. Pickard,       |
 | P. J. Hasnip, M. J. Probert, K. Refson,         |
 | M. C. Payne                                     |
 |                                                 |
 |       in all publications arising from          |
 |              your use of CASTEP                 |
 |                                                 |
 +-------------------------------------------------+
 |                                                 |
 |              http://www.castep.org              |
 |                                                 |
 +-------------------------------------------------+



 Compiled for linux_x86_64_gfortran10-XT on Thu, 16 Mar 2023 13:12:36 +0000
 from code version Version unavailable
 Compiler: GNU Fortran 11.2.0; Optimisation: fast
 MATHLIBS: LibSci (LAPACK version 3.10.1)
 FFT Lib : fftw3 version commercial-fftw-3.3.10-sse2-avx-avx2-avx2_128
 Fundamental constants values: CODATA 2014

 Run started: Mon, 25 Mar 2024 17:26:53 +0000

 Atomic calculation performed for P: 1s2 2s2 2p6 3s2 3p3

 Converged in 47 iterations to an ae energy of -9309.074 eV

   ============================================================                
   | Pseudopotential Report - Date of generation 25-03-2024   |                
   ------------------------------------------------------------                
   | Element: P Ionic charge:  5.00 Level of theory: RSCAN    |                
   | Atomic Solver: Koelling-Harmon                           |                
   |                                                          |                
   |               Reference Electronic Structure             |                
   |         Orbital         Occupation         Energy        |                
   |            3s              2.000           -0.535        |                
   |            3p              3.000           -0.209        |                
   |                                                          |                
   |                 Pseudopotential Definition               |                
   |        Beta     l      e      Rc     scheme   norm       |                
   |          1      0   -0.535   1.807     qc      0         |                
   |          2      0    0.250   1.807     qc      0         |                
   |          3      1   -0.209   1.807     qc      0         |                
   |          4      1    0.250   1.807     qc      0         |                
   |          5      2    0.000   1.807     qc      0         |                
   |          6      2    0.250   1.807     qc      0         |                
   |         loc     3    0.000   1.807     pn      0         |                
   |                                                          |                
   | Augmentation charge Rinner = 1.263                       |                
   | Partial core correction Rc = 1.263                       |                
   ------------------------------------------------------------                
   | "3|1.8|4|4|5|30:31:32"                                   |                
   ------------------------------------------------------------                
   |      Author: Chris J. Pickard, Cambridge University      |                
   ============================================================                
 Warning: otfg_output_psp cannot write out meta-GGA pseudopotentials presently.

 Atomic calculation performed for In:
 1s2 2s2 2p6 3s2 3p6 3d10 4s2 4p6 4d10 5s2 5p1

 Converged in 84 iterations to an ae energy of -160093.327 eV

   ============================================================                
   | Pseudopotential Report - Date of generation 25-03-2024   |                
   ------------------------------------------------------------                
   | Element: In Ionic charge: 13.00 Level of theory: RSCAN   |                
   | Atomic Solver: Koelling-Harmon                           |                
   |                                                          |                
   |               Reference Electronic Structure             |                
   |         Orbital         Occupation         Energy        |                
   |            4d             10.000           -0.711        |                
   |            5s              2.000           -0.313        |                
   |            5p              1.000           -0.095        |                
   |                                                          |                
   |                 Pseudopotential Definition               |                
   |        Beta     l      e      Rc     scheme   norm       |                
   |          1      0   -0.313   2.501     qc      0         |                
   |          2      0    0.250   2.501     qc      0         |                
   |          3      1   -0.095   2.501     qc      0         |                
   |          4      1    0.250   2.501     qc      0         |                
   |          5      2   -0.711   2.207     qc      0         |                
   |          6      2    0.250   2.207     qc      0         |                
   |         loc     3    0.000   2.501     pn      0         |                
   |                                                          |                
   | Augmentation charge Rinner = 1.504                       |                
   | Partial core correction Rc = 1.504                       |                
   ------------------------------------------------------------                
   | "3|2.5|2.5|1.5|7|8|9|50:51:42U2.2U2.2"                   |                
   ------------------------------------------------------------                
   |      Author: Chris J. Pickard, Cambridge University      |                
   ============================================================                
 Warning: otfg_output_psp cannot write out meta-GGA pseudopotentials presently.

 Pseudo atomic calculation performed for P 3s2 3p3

 Converged in 23 iterations to a total energy of -208.0292 eV

 Pseudo atomic calculation performed for In 4d10 5s2 5p1

 Converged in 42 iterations to a total energy of -1747.4500 eV
 Calculation parallelised over 240 processes.
 Data is distributed by G-vector(6-way) and k-point(40-way)
 Each process may use up to 2 threads.

 ************************************ Title ************************************
 

 ***************************** General Parameters ******************************
  
 output verbosity                               : normal  (1)
 write checkpoint data to                       : StackingFaultStructs_(0_0_1)_(1_0_0)_7.check
 type of calculation                            : geometry optimization
 stress calculation                             : off
 density difference calculation                 : off
 electron localisation func (ELF) calculation   : off
 Hirshfeld analysis                             : on
 polarisation (Berry phase) analysis            : off
 molecular orbital projected DOS                : off
 deltaSCF calculation                           : off
 unlimited duration calculation
 timing information                             : on
 memory usage estimate                          : on
 write extra output files                       : on
 write final potential to formatted file        : off
 write final density to formatted file          : off
 write BibTeX reference list                    : on
 write OTFG pseudopotential files               : on
 write electrostatic potential file             : on
 write bands file                               : on
 checkpoint writing                             : off
  
 output         length unit                     : A
 output           mass unit                     : amu
 output           time unit                     : ps
 output         charge unit                     : e
 output           spin unit                     : hbar/2
 output         energy unit                     : eV
 output          force unit                     : eV/A
 output       velocity unit                     : A/ps
 output       pressure unit                     : GPa
 output     inv_length unit                     : 1/A
 output      frequency unit                     : cm-1
 output force constant unit                     : eV/A**2
 output         volume unit                     : A**3
 output   IR intensity unit                     : (D/A)**2/amu
 output         dipole unit                     : D
 output         efield unit                     : eV/A/e
 output        entropy unit                     : J/mol/K
 output    efield chi2 unit                     : pm/V
  
 wavefunctions paging                           : none
 random number generator seed                   : randomised (172654426)
 data distribution                              : optimal for this architecture
 optimization strategy                          : balance speed and memory

 *********************** Exchange-Correlation Parameters ***********************
  
 using functional                               : RSCAN
 relativistic treatment                         : Koelling-Harmon
 DFT+D: Semi-empirical dispersion correction    : off

 ************************* Pseudopotential Parameters **************************
  
 pseudopotential representation                 : reciprocal space
 <beta|phi> representation                      : reciprocal space
 spin-orbit coupling                            : off

 **************************** Basis Set Parameters *****************************
  
 plane wave basis set cut-off                   :   900.0000   eV
 size of standard grid                          :     2.0000
 size of   fine   gmax                          :    30.7390   1/A
 finite basis set correction                    : none

 **************************** Electronic Parameters ****************************
  
 number of  electrons                           :  216.0    
 net charge of system                           :  0.000    
 treating system as non-spin-polarized
 number of bands                                :        130

 ********************* Electronic Minimization Parameters **********************
  
 Method: Treating system as metallic with density mixing treatment of electrons,
         and number of  SD  steps               :          1
         and number of  CG  steps               :          4
  
 total energy / atom convergence tol.           : 0.1000E-07   eV
 eigen-energy convergence tolerance             : 0.2222E-08   eV
 max force / atom convergence tol.              : ignored
 convergence tolerance window                   :          3   cycles
 max. number of SCF cycles                      :         50
 number of fixed-spin iterations                :         10
 smearing scheme                                : Gaussian
 smearing width                                 : 0.2000       eV
 Fermi energy convergence tolerance             : 0.2721E-13   eV
 periodic dipole correction                     : NONE

 ************************** Density Mixing Parameters **************************
  
 density-mixing scheme                          : Pulay
 max. length of mixing history                  :         15
 charge density mixing amplitude                : 0.5000    
 cut-off energy for mixing                      :  900.0       eV

 *********************** Population Analysis Parameters ************************
  
 Population analysis with cutoff                :  3.000       A
 Population analysis output                     : summary and pdos components

 ********************** Geometry Optimization Parameters ***********************
  
 optimization method                            : LBFGS
 max. no. of LBFGS updates                      : unbounded
 preconditioned LBFGS is activated
 preconditioner type                            : EXP
     stabilization constant                     :     0.1000
     parameter A                                :     3.0000
     nearest neighbor distance                  : automatic
     cut-off distance                           : automatic
     parameter mu                               : automatic
 variable cell method                           : fixed basis quality
 max. number of steps                           :         30
 estimated bulk modulus                         :  500.0       GPa
 estimated <frequency>                          :  1668.       cm-1
 geom line minimiser                            : on
 with line minimiser tolerance                  :     0.4000
 total energy convergence tolerance             : 0.2000E-04   eV/atom
        max ionic |force| tolerance             : 0.1000E-02   eV/A
 max ionic |displacement| tolerance             : 0.1000E-02   A
   max |stress component| tolerance             : 0.1000       GPa
 convergence tolerance window                   :          2   steps
 backup results every                           :          5   steps
 write geom trajectory file                     : on

 *******************************************************************************
  

                           -------------------------------
                                      Unit Cell
                           -------------------------------
        Real Lattice(A)                      Reciprocal Lattice(1/A)
     5.9012740     0.0000000     0.0000000        1.064716756   0.000000000   0.000000000
     0.0000000     5.9012740     0.0000000        0.000000000   1.064716756  -0.286654490
     0.0000000     4.7664130    17.7038210        0.000000000   0.000000000   0.354905605

                       Lattice parameters(A)       Cell Angles
                    a =      5.901274          alpha =   74.931513
                    b =      5.901274          beta  =   90.000000
                    c =     18.334229          gamma =   90.000000

                       Current cell volume =           616.536183       A**3
                                   density =             2.837629   AMU/A**3
                                           =             4.711994     g/cm^3

                           -------------------------------
                                     Cell Contents
                           -------------------------------
                         Total number of ions in cell =   24
                      Total number of species in cell =    2
                        Max number of any one species =   12

            xxxxxxxxxxxxxxxxxxxxxxxxxxxxxxxxxxxxxxxxxxxxxxxxxxxxxxxxxxxx
            x  Element    Atom        Fractional coordinates of atoms  x
            x            Number           u          v          w      x
            x----------------------------------------------------------x
            x  P            1         0.250000   0.018699   0.905421   x 
            x  P            2         0.250000  -0.350117   0.743002   x 
            x  P            3         0.750000   0.149883   0.743002   x 
            x  P            4         0.750000  -0.481301   0.905421   x 
            x  P            5         0.750000   0.044242   0.254748   x 
            x  P            6         0.750000   0.412466   0.417899   x 
            x  P            7         0.750000  -0.219029   0.580702   x 
            x  P            8         0.250000   0.544242   0.254748   x 
            x  P            9         0.250000   0.176723   0.090724   x 
            x  P           10         0.750000   0.676723   0.090724   x 
            x  P           11         0.250000  -0.087534   0.417899   x 
            x  P           12         0.250000   0.280971   0.580702   x 
            x  In           1         0.000000  -0.166835   0.825605   x 
            x  In           2         0.500000  -0.035047   0.662440   x 
            x  In           3         0.500000  -0.666835   0.825605   x 
            x  In           4         0.500000  -0.140358   0.173777   x 
            x  In           5         0.500000   0.492196   0.009662   x 
            x  In           6         0.000000  -0.007804   0.009662   x 
            x  In           7         0.000000   0.359642   0.173777   x 
            x  In           8         0.000000  -0.535047   0.662440   x 
            x  In           9         0.500000  -0.403453   0.499513   x 
            x  In          10         0.500000   0.228205   0.336508   x 
            x  In          11         0.000000  -0.271795   0.336508   x 
            x  In          12         0.000000   0.096547   0.499513   x 
            xxxxxxxxxxxxxxxxxxxxxxxxxxxxxxxxxxxxxxxxxxxxxxxxxxxxxxxxxxxx


                         No user defined ionic velocities

                           -------------------------------
                                   Details of Species
                           -------------------------------

                               Mass of species in AMU
                                    P   30.9737600
                                    In  114.8180000

                          Electric Quadrupole Moment (Barn)
                                    P    1.0000000 No Isotope Defined
                                    In    0.7700000 Isotope115

                          Files used for pseudopotentials:
                                    P 3|1.8|4|4|5|30:31:32
                                    In 3|2.5|2.5|1.5|7|8|9|50:51:42U2.2U2.2

                           -------------------------------
                              k-Points For BZ Sampling
                           -------------------------------
                       MP grid size for SCF calculation is  6  6  2
                            with an offset of   0.083  0.083  0.250
                       Number of kpoints used =            40

                           -------------------------------
                               Symmetry and Constraints
                           -------------------------------

                      Cell is a supercell containing 2 primitive cells
                      Maximum deviation from symmetry =  0.00000         ANG

                      Number of symmetry operations   =           1
                      Number of ionic constraints     =          48
                      Point group of crystal =     1: C1, 1, 1
                      Space group of crystal =     1: P1, P 1

             Set iprint > 1 for details on symmetry rotations/translations

                         Centre of mass is NOT constrained
             Set iprint > 1 for details of linear ionic constraints

                         Number of cell constraints= 6
                         Cell constraints are:  0 0 0 0 0 0

                         External pressure/stress (GPa)
                          0.00000   0.00000   0.00000
                                    0.00000   0.00000
                                              0.00000
 
+---------------- MEMORY AND SCRATCH DISK ESTIMATES PER PROCESS --------------+
|                                                     Memory          Disk    |
| Baseline code, static data and system overhead      488.0 MB         0.0 MB |
| BLAS internal memory storage                          0.0 MB         0.0 MB |
| Model and support data                              833.1 MB         0.0 MB |
| Electronic energy minimisation requirements          87.6 MB         0.0 MB |
| Force calculation requirements                       15.9 MB         0.0 MB |
|                                               ----------------------------- |
| Approx. total storage required per process         1408.7 MB         0.0 MB |
|                                                                             |
| Requirements will fluctuate during execution and may exceed these estimates |
+-----------------------------------------------------------------------------+
Calculating approximate eigenstates for fixed initial Hamiltonian
Cut-off for approx. calculation is  131.752 eV
Improving approx. states at cut-off of  450.000 eV
Resetting cut-off to  900.000 eV
Calculating total energy with cut-off of  900.000 eV.
------------------------------------------------------------------------ <-- SCF
SCF loop      Energy           Fermi           Energy gain       Timer   <-- SCF
                               energy          per atom          (sec)   <-- SCF
------------------------------------------------------------------------ <-- SCF
Initial  -2.36323025E+004  0.00000000E+000                        40.34  <-- SCF
      1  -2.35497283E+004  2.71573143E+000  -3.44059072E+000      51.08  <-- SCF
      2  -2.35497425E+004  2.71567368E+000   5.93537012E-004      60.72  <-- SCF
      3  -2.35743558E+004  3.12723573E+000   1.02555300E+000      71.27  <-- SCF
      4  -2.35784642E+004  3.20615027E+000   1.71183599E-001      83.90  <-- SCF
      5  -2.35763986E+004  3.53889534E+000  -8.60664053E-002      94.48  <-- SCF
      6  -2.35767059E+004  3.59762046E+000   1.28012247E-002     105.14  <-- SCF
      7  -2.35765231E+004  3.66303796E+000  -7.61577715E-003     116.21  <-- SCF
      8  -2.35771611E+004  3.70127434E+000   2.65828974E-002     126.88  <-- SCF
      9  -2.35771527E+004  3.66894251E+000  -3.49198418E-004     137.50  <-- SCF
     10  -2.35771590E+004  3.66273460E+000   2.63194887E-004     148.71  <-- SCF
     11  -2.35771714E+004  3.66413901E+000   5.16358182E-004     159.53  <-- SCF
     12  -2.35771732E+004  3.66037876E+000   7.52621356E-005     170.59  <-- SCF
     13  -2.35771734E+004  3.66647566E+000   1.01945937E-005     181.68  <-- SCF
     14  -2.35771734E+004  3.66528376E+000  -1.51660006E-007     191.31  <-- SCF
     15  -2.35771734E+004  3.66563039E+000   1.08036841E-007     200.99  <-- SCF
     16  -2.35771734E+004  3.66554492E+000   2.94681201E-008     208.74  <-- SCF
     17  -2.35771734E+004  3.66556541E+000   1.50457379E-008     216.44  <-- SCF
     18  -2.35771734E+004  3.66556754E+000  -3.66846605E-010     224.14  <-- SCF
     19  -2.35771734E+004  3.66557973E+000   4.44701611E-010     231.81  <-- SCF
------------------------------------------------------------------------ <-- SCF
 
Final energy, E             =  -23577.16986508     eV
Final free energy (E-TS)    =  -23577.17344331     eV
(energies not corrected for finite basis set)
 
NB est. 0K energy (E-0.5TS)      =  -23577.17165420     eV
 
 
+---------------- MEMORY AND SCRATCH DISK ESTIMATES PER PROCESS --------------+
|                                                     Memory          Disk    |
| Model and support data                              555.4 MB         0.0 MB |
| Electronic energy minimisation requirements          87.6 MB         0.0 MB |
| Geometry minimisation requirements                  102.1 MB         0.0 MB |
|                                               ----------------------------- |
| Approx. total storage required per process          745.1 MB         0.0 MB |
|                                                                             |
| Requirements will fluctuate during execution and may exceed these estimates |
+-----------------------------------------------------------------------------+
 

 ******************************** Constrained Forces ********************************
 *                                                                                  *
 *                           Cartesian components (eV/A)                            *
 * -------------------------------------------------------------------------------- *
 *                         x                    y                    z              *
 *                                                                                  *
 * P               1      0.00000(cons'd)      0.00000(cons'd)      0.10756         *
 * P               2     -0.00000(cons'd)     -0.00000(cons'd)      0.01863         *
 * P               3     -0.00000(cons'd)     -0.00000(cons'd)      0.01863         *
 * P               4      0.00000(cons'd)      0.00000(cons'd)      0.10756         *
 * P               5     -0.00000(cons'd)      0.00000(cons'd)     -0.07622         *
 * P               6      0.00000(cons'd)      0.00000(cons'd)     -0.11447         *
 * P               7     -0.00000(cons'd)     -0.00000(cons'd)     -0.09455         *
 * P               8     -0.00000(cons'd)      0.00000(cons'd)     -0.07622         *
 * P               9      0.00000(cons'd)      0.00000(cons'd)      0.11739         *
 * P              10     -0.00000(cons'd)      0.00000(cons'd)      0.11739         *
 * P              11      0.00000(cons'd)      0.00000(cons'd)     -0.11447         *
 * P              12      0.00000(cons'd)      0.00000(cons'd)     -0.09455         *
 * In              1      0.00000(cons'd)     -0.00000(cons'd)     -0.03596         *
 * In              2      0.00000(cons'd)      0.00000(cons'd)      0.02499         *
 * In              3      0.00000(cons'd)      0.00000(cons'd)     -0.03596         *
 * In              4      0.00000(cons'd)     -0.00000(cons'd)      0.01627         *
 * In              5      0.00000(cons'd)     -0.00000(cons'd)     -0.16736         *
 * In              6      0.00000(cons'd)      0.00000(cons'd)     -0.16736         *
 * In              7      0.00000(cons'd)     -0.00000(cons'd)      0.01627         *
 * In              8      0.00000(cons'd)     -0.00000(cons'd)      0.02499         *
 * In              9      0.00000(cons'd)      0.00000(cons'd)      0.09759         *
 * In             10     -0.00000(cons'd)     -0.00000(cons'd)      0.10613         *
 * In             11     -0.00000(cons'd)      0.00000(cons'd)      0.10613         *
 * In             12      0.00000(cons'd)      0.00000(cons'd)      0.09759         *
 *                                                                                  *
 ************************************************************************************
 EXP precond LBFGS => estimated nearest neighbor distance :  2.536       A
 EXP precond LBFGS => estimated cutoff distance :  5.071       A

 ************************************** Forces **************************************
 *                                                                                  *
 *                           Cartesian components (eV/A)                            *
 * -------------------------------------------------------------------------------- *
 *                         x                    y                    z              *
 *                                                                                  *
 * P               1      0.27284(cons'd)     -1.38647(cons'd)      0.10756         *
 * P               2     -0.19745(cons'd)     -0.11350(cons'd)      0.01863         *
 * P               3     -0.19745(cons'd)     -0.11350(cons'd)      0.01863         *
 * P               4      0.27284(cons'd)     -1.38647(cons'd)      0.10756         *
 * P               5     -0.00876(cons'd)      0.06265(cons'd)     -0.07622         *
 * P               6     -0.00636(cons'd)      0.00811(cons'd)     -0.11447         *
 * P               7     -0.02863(cons'd)     -0.01665(cons'd)     -0.09455         *
 * P               8     -0.00876(cons'd)      0.06265(cons'd)     -0.07622         *
 * P               9     -0.04610(cons'd)      0.45386(cons'd)      0.11739         *
 * P              10     -0.04610(cons'd)      0.45386(cons'd)      0.11739         *
 * P              11     -0.00636(cons'd)      0.00811(cons'd)     -0.11447         *
 * P              12     -0.02863(cons'd)     -0.01665(cons'd)     -0.09455         *
 * In              1      0.20919(cons'd)      0.29279(cons'd)     -0.03596         *
 * In              2      0.02644(cons'd)      0.04724(cons'd)      0.02499         *
 * In              3      0.20919(cons'd)      0.29279(cons'd)     -0.03596         *
 * In              4      0.14411(cons'd)      0.01115(cons'd)      0.01627         *
 * In              5     -0.39679(cons'd)      0.63130(cons'd)     -0.16736         *
 * In              6     -0.39679(cons'd)      0.63130(cons'd)     -0.16736         *
 * In              7      0.14411(cons'd)      0.01115(cons'd)      0.01627         *
 * In              8      0.02644(cons'd)      0.04724(cons'd)      0.02499         *
 * In              9      0.00830(cons'd)      0.00685(cons'd)      0.09759         *
 * In             10      0.02321(cons'd)      0.00269(cons'd)      0.10613         *
 * In             11      0.02321(cons'd)      0.00269(cons'd)      0.10613         *
 * In             12      0.00830(cons'd)      0.00685(cons'd)      0.09759         *
 *                                                                                  *
 ************************************************************************************
 doing test perturbation to get energy scale for EXP preconditioner

                           -------------------------------
                                     Cell Contents
                           -------------------------------

            xxxxxxxxxxxxxxxxxxxxxxxxxxxxxxxxxxxxxxxxxxxxxxxxxxxxxxxxxxxxxxxxx
            x  Element         Atom        Fractional coordinates of atoms  x
            x                 Number           u          v          w      x
            x---------------------------------------------------------------x
            x  P                 1         0.251406   0.020145   0.906634   x
            x  P                 2         0.251406   0.652646   0.744058   x
            x  P                 3         0.753616   0.151456   0.744058   x
            x  P                 4         0.753616   0.521334   0.906634   x
            x  P                 5         0.753616   0.044771   0.255150   x
            x  P                 6         0.753616   0.414372   0.418543   x
            x  P                 7         0.753616   0.783888   0.581567   x
            x  P                 8         0.251406   0.546343   0.255150   x
            x  P                 9         0.251406   0.177460   0.090869   x
            x  P                10         0.753616   0.679032   0.090869   x
            x  P                11         0.251406   0.915561   0.418543   x
            x  P                12         0.251406   0.282699   0.581567   x
            x  In                1         0.000000   0.836249   0.826746   x
            x  In                2         0.502657   0.968178   0.663405   x
            x  In                3         0.502657   0.335326   0.826746   x
            x  In                4         0.502657   0.862501   0.174053   x
            x  In                5         0.502657   0.493857   0.009677   x
            x  In                6         0.000000   0.995266   0.009677   x
            x  In                7         0.000000   0.361092   0.174053   x
            x  In                8         0.000000   0.467255   0.663405   x
            x  In                9         0.502657   0.599017   0.500271   x
            x  In               10         0.502657   0.229454   0.337033   x
            x  In               11         0.000000   0.730863   0.337033   x
            x  In               12         0.000000   0.097608   0.500271   x
            xxxxxxxxxxxxxxxxxxxxxxxxxxxxxxxxxxxxxxxxxxxxxxxxxxxxxxxxxxxxxxxxx


------------------------------------------------------------------------ <-- SCF
SCF loop      Energy           Fermi           Energy gain       Timer   <-- SCF
                               energy          per atom          (sec)   <-- SCF
------------------------------------------------------------------------ <-- SCF
Initial  -2.35759698E+004  0.00000000E+000                       245.96  <-- SCF
      1  -2.35770225E+004  3.64954601E+000   4.38607414E-002     256.21  <-- SCF
      2  -2.35771481E+004  3.64946595E+000   5.23322979E-003     269.09  <-- SCF
      3  -2.35771492E+004  3.64823022E+000   4.67171995E-005     279.99  <-- SCF
      4  -2.35771501E+004  3.64669007E+000   3.78308582E-005     291.13  <-- SCF
      5  -2.35771503E+004  3.64614394E+000   5.41624637E-006     302.83  <-- SCF
      6  -2.35771503E+004  3.64574034E+000   9.10031319E-007     314.03  <-- SCF
      7  -2.35771503E+004  3.64551320E+000  -2.77256631E-008     323.89  <-- SCF
      8  -2.35771503E+004  3.64532851E+000  -6.18341478E-008     333.02  <-- SCF
      9  -2.35771503E+004  3.64524305E+000  -1.24785850E-008     341.56  <-- SCF
     10  -2.35771503E+004  3.64521490E+000   1.18200399E-010     349.52  <-- SCF
     11  -2.35771503E+004  3.64521207E+000   5.00257088E-010     357.20  <-- SCF
------------------------------------------------------------------------ <-- SCF
 
Final energy, E             =  -23577.14714083     eV
Final free energy (E-TS)    =  -23577.15028360     eV
(energies not corrected for finite basis set)
 
NB est. 0K energy (E-0.5TS)      =  -23577.14871221     eV
 

 ************************************** Forces **************************************
 *                                                                                  *
 *                           Cartesian components (eV/A)                            *
 * -------------------------------------------------------------------------------- *
 *                         x                    y                    z              *
 *                                                                                  *
 * P               1      0.39042(cons'd)     -1.38030(cons'd)     -0.02160         *
 * P               2     -0.17018(cons'd)     -0.13864(cons'd)      0.01905         *
 * P               3     -0.33274(cons'd)     -0.05179(cons'd)      0.01942         *
 * P               4      0.30485(cons'd)     -1.48539(cons'd)     -0.01268         *
 * P               5     -0.15239(cons'd)      0.16129(cons'd)     -0.07157         *
 * P               6     -0.13810(cons'd)      0.00803(cons'd)     -0.11147         *
 * P               7     -0.19028(cons'd)     -0.06500(cons'd)     -0.06820         *
 * P               8      0.01883(cons'd)      0.05289(cons'd)     -0.07030         *
 * P               9     -0.01720(cons'd)      0.55470(cons'd)      0.13333         *
 * P              10     -0.18894(cons'd)      0.44330(cons'd)      0.13466         *
 * P              11      0.01469(cons'd)     -0.07207(cons'd)     -0.11528         *
 * P              12     -0.02624(cons'd)      0.02626(cons'd)     -0.11550         *
 * In              1      0.36230(cons'd)      0.24402(cons'd)     -0.06537         *
 * In              2     -0.03059(cons'd)     -0.00027(cons'd)      0.02019         *
 * In              3      0.16310(cons'd)      0.29522(cons'd)     -0.06650         *
 * In              4      0.09073(cons'd)     -0.08038(cons'd)      0.01259         *
 * In              5     -0.54229(cons'd)      0.66484(cons'd)      0.04124         *
 * In              6     -0.40399(cons'd)      0.65444(cons'd)     -0.08108         *
 * In              7      0.30671(cons'd)      0.04023(cons'd)      0.01302         *
 * In              8      0.19541(cons'd)      0.05055(cons'd)      0.02012         *
 * In              9     -0.04335(cons'd)     -0.00866(cons'd)      0.09316         *
 * In             10     -0.00168(cons'd)      0.05625(cons'd)      0.07159         *
 * In             11      0.21844(cons'd)     -0.05565(cons'd)      0.13273         *
 * In             12      0.17247(cons'd)      0.08614(cons'd)      0.08845         *
 *                                                                                  *
 ************************************************************************************
 EXP precond LBFGS => estimated parameter mu :  2.069       eV/A**2
 LBFGS: finished iteration     0 with enthalpy= -2.35771734E+004 eV
  
 +-----------+-----------------+-----------------+------------+-----+ <-- LBFGS
 | Parameter |      value      |    tolerance    |    units   | OK? | <-- LBFGS
 +-----------+-----------------+-----------------+------------+-----+ <-- LBFGS
 |  dE/ion   |   0.000000E+000 |   2.000000E-005 |         eV | No  | <-- LBFGS
 |  |F|max   |   1.516399E+000 |   1.000000E-003 |       eV/A | No  | <-- LBFGS
 |  |dR|max  |   1.880015E-015 |   1.000000E-003 |          A | No  | <-- LBFGS
 +-----------+-----------------+-----------------+------------+-----+ <-- LBFGS
  

================================================================================
 Starting LBFGS iteration          1 ...
================================================================================
  
 +------------+-------------+-------------+-----------------+ <-- min LBFGS
 |    Step    |   lambda    |   F.delta'  |    enthalpy     | <-- min LBFGS
 +------------+-------------+-------------+-----------------+ <-- min LBFGS
 |  previous  |    0.000000 |    0.224225 |   -23577.173443 | <-- min LBFGS
 +------------+-------------+-------------+-----------------+ <-- min LBFGS
  

--------------------------------------------------------------------------------
 LBFGS: starting iteration         1 with trial guess (lambda=  1.000000)
--------------------------------------------------------------------------------

                           -------------------------------
                                     Cell Contents
                           -------------------------------

            xxxxxxxxxxxxxxxxxxxxxxxxxxxxxxxxxxxxxxxxxxxxxxxxxxxxxxxxxxxxxxxxx
            x  Element         Atom        Fractional coordinates of atoms  x
            x                 Number           u          v          w      x
            x---------------------------------------------------------------x
            x  P                 1         0.250000   0.018307   0.905906   x
            x  P                 2         0.250000  -0.350203   0.743109   x
            x  P                 3         0.750000   0.149797   0.743109   x
            x  P                 4         0.750000  -0.481693   0.905906   x
            x  P                 5         0.750000   0.044427   0.254519   x
            x  P                 6         0.750000   0.412834   0.417443   x
            x  P                 7         0.750000  -0.218666   0.580253   x
            x  P                 8         0.250000   0.544427   0.254519   x
            x  P                 9         0.250000   0.176329   0.091211   x
            x  P                10         0.750000   0.676329   0.091211   x
            x  P                11         0.250000  -0.087166   0.417443   x
            x  P                12         0.250000   0.281334   0.580253   x
            x  In                1         0.000000  -0.166831   0.825600   x
            x  In                2         0.500000  -0.035058   0.662453   x
            x  In                3         0.500000  -0.666831   0.825600   x
            x  In                4         0.500000  -0.140493   0.173944   x
            x  In                5         0.500000   0.492713   0.009023   x
            x  In                6         0.000000  -0.007287   0.009023   x
            x  In                7         0.000000   0.359507   0.173944   x
            x  In                8         0.000000  -0.535058   0.662453   x
            x  In                9         0.500000  -0.403606   0.499702   x
            x  In               10         0.500000   0.227939   0.336838   x
            x  In               11        -0.000000  -0.272061   0.336838   x
            x  In               12         0.000000   0.096394   0.499702   x
            xxxxxxxxxxxxxxxxxxxxxxxxxxxxxxxxxxxxxxxxxxxxxxxxxxxxxxxxxxxxxxxxx


------------------------------------------------------------------------ <-- SCF
SCF loop      Energy           Fermi           Energy gain       Timer   <-- SCF
                               energy          per atom          (sec)   <-- SCF
------------------------------------------------------------------------ <-- SCF
Initial  -2.35761961E+004  0.00000000E+000                       365.92  <-- SCF
      1  -2.35770524E+004  3.65153830E+000   3.56809877E-002     376.15  <-- SCF
      2  -2.35771760E+004  3.65146929E+000   5.14948104E-003     389.01  <-- SCF
      3  -2.35771770E+004  3.65052726E+000   4.13190303E-005     400.00  <-- SCF
      4  -2.35771778E+004  3.65032633E+000   3.21249149E-005     411.18  <-- SCF
      5  -2.35771778E+004  3.65042283E+000   2.71825291E-006     423.67  <-- SCF
      6  -2.35771778E+004  3.65034231E+000  -6.87330939E-007     435.80  <-- SCF
      7  -2.35771778E+004  3.65019504E+000  -8.76456605E-007     446.63  <-- SCF
      8  -2.35771778E+004  3.65008346E+000  -3.03706452E-007     456.50  <-- SCF
      9  -2.35771778E+004  3.65006295E+000   9.91633034E-009     465.16  <-- SCF
     10  -2.35771778E+004  3.65005541E+000   3.06122277E-009     473.18  <-- SCF
     11  -2.35771778E+004  3.65005299E+000   6.35987754E-010     480.86  <-- SCF
------------------------------------------------------------------------ <-- SCF
 
Final energy, E             =  -23577.17482788     eV
Final free energy (E-TS)    =  -23577.17778018     eV
(energies not corrected for finite basis set)
 
NB est. 0K energy (E-0.5TS)      =  -23577.17630403     eV
 

 ******************************** Constrained Forces ********************************
 *                                                                                  *
 *                           Cartesian components (eV/A)                            *
 * -------------------------------------------------------------------------------- *
 *                         x                    y                    z              *
 *                                                                                  *
 * P               1      0.00000(cons'd)     -0.00000(cons'd)     -0.08233         *
 * P               2     -0.00000(cons'd)      0.00000(cons'd)     -0.00331         *
 * P               3      0.00000(cons'd)     -0.00000(cons'd)     -0.00331         *
 * P               4      0.00000(cons'd)     -0.00000(cons'd)     -0.08234         *
 * P               5      0.00000(cons'd)      0.00000(cons'd)      0.01434         *
 * P               6     -0.00000(cons'd)      0.00000(cons'd)      0.01976         *
 * P               7      0.00000(cons'd)      0.00000(cons'd)      0.01350         *
 * P               8     -0.00000(cons'd)      0.00000(cons'd)      0.01434         *
 * P               9     -0.00000(cons'd)      0.00000(cons'd)     -0.02247         *
 * P              10     -0.00000(cons'd)      0.00000(cons'd)     -0.02247         *
 * P              11     -0.00000(cons'd)      0.00000(cons'd)      0.01976         *
 * P              12     -0.00000(cons'd)      0.00000(cons'd)      0.01350         *
 * In              1      0.00000(cons'd)      0.00000(cons'd)      0.01184         *
 * In              2      0.00000(cons'd)      0.00000(cons'd)     -0.00453         *
 * In              3      0.00000(cons'd)     -0.00000(cons'd)      0.01183         *
 * In              4      0.00000(cons'd)      0.00000(cons'd)     -0.00080         *
 * In              5      0.00000(cons'd)     -0.00000(cons'd)      0.09807         *
 * In              6      0.00000(cons'd)      0.00000(cons'd)      0.09806         *
 * In              7      0.00000(cons'd)      0.00000(cons'd)     -0.00081         *
 * In              8      0.00000(cons'd)      0.00000(cons'd)     -0.00454         *
 * In              9      0.00000(cons'd)      0.00000(cons'd)     -0.02145         *
 * In             10     -0.00000(cons'd)      0.00000(cons'd)     -0.02258         *
 * In             11      0.00000(cons'd)      0.00000(cons'd)     -0.02260         *
 * In             12      0.00000(cons'd)      0.00000(cons'd)     -0.02146         *
 *                                                                                  *
 ************************************************************************************
  
 +------------+-------------+-------------+-----------------+ <-- min LBFGS
 |    Step    |   lambda    |   F.delta'  |    enthalpy     | <-- min LBFGS
 +------------+-------------+-------------+-----------------+ <-- min LBFGS
 |  previous  |    0.000000 |    0.224225 |   -23577.173443 | <-- min LBFGS
 | trial step |    1.000000 |   -0.083417 |   -23577.177780 | <-- min LBFGS
 +------------+-------------+-------------+-----------------+ <-- min LBFGS
  
 LBFGS: finished iteration     1 with enthalpy= -2.35771778E+004 eV
  
 +-----------+-----------------+-----------------+------------+-----+ <-- LBFGS
 | Parameter |      value      |    tolerance    |    units   | OK? | <-- LBFGS
 +-----------+-----------------+-----------------+------------+-----+ <-- LBFGS
 |  dE/ion   |   1.807031E-004 |   2.000000E-005 |         eV | No  | <-- LBFGS
 |  |F|max   |   9.807195E-002 |   1.000000E-003 |       eV/A | No  | <-- LBFGS
 |  |dR|max  |   1.131510E-002 |   1.000000E-003 |          A | No  | <-- LBFGS
 +-----------+-----------------+-----------------+------------+-----+ <-- LBFGS
  

================================================================================
 Starting LBFGS iteration          2 ...
================================================================================
  
 +------------+-------------+-------------+-----------------+ <-- min LBFGS
 |    Step    |   lambda    |   F.delta'  |    enthalpy     | <-- min LBFGS
 +------------+-------------+-------------+-----------------+ <-- min LBFGS
 |  previous  |    0.000000 |    0.080241 |   -23577.177780 | <-- min LBFGS
 +------------+-------------+-------------+-----------------+ <-- min LBFGS
  

--------------------------------------------------------------------------------
 LBFGS: starting iteration         2 with trial guess (lambda=  1.000000)
--------------------------------------------------------------------------------

                           -------------------------------
                                     Cell Contents
                           -------------------------------

            xxxxxxxxxxxxxxxxxxxxxxxxxxxxxxxxxxxxxxxxxxxxxxxxxxxxxxxxxxxxxxxxx
            x  Element         Atom        Fractional coordinates of atoms  x
            x                 Number           u          v          w      x
            x---------------------------------------------------------------x
            x  P                 1         0.250000   0.018511   0.905653   x
            x  P                 2         0.250000  -0.350128   0.743016   x
            x  P                 3         0.750000   0.149872   0.743016   x
            x  P                 4         0.750000  -0.481489   0.905653   x
            x  P                 5         0.750000   0.044360   0.254602   x
            x  P                 6         0.750000   0.412824   0.417456   x
            x  P                 7         0.750000  -0.218632   0.580211   x
            x  P                 8         0.250000   0.544360   0.254602   x
            x  P                 9         0.250000   0.176241   0.091320   x
            x  P                10         0.750000   0.676241   0.091320   x
            x  P                11         0.250000  -0.087176   0.417456   x
            x  P                12         0.250000   0.281368   0.580211   x
            x  In                1         0.000000  -0.166764   0.825517   x
            x  In                2         0.500000  -0.034991   0.662370   x
            x  In                3         0.500000  -0.666764   0.825517   x
            x  In                4         0.500000  -0.140571   0.174040   x
            x  In                5         0.500000   0.492424   0.009380   x
            x  In                6         0.000000  -0.007576   0.009380   x
            x  In                7         0.000000   0.359429   0.174040   x
            x  In                8         0.000000  -0.534991   0.662370   x
            x  In                9         0.500000  -0.403540   0.499621   x
            x  In               10         0.500000   0.227959   0.336813   x
            x  In               11        -0.000000  -0.272041   0.336813   x
            x  In               12         0.000000   0.096460   0.499621   x
            xxxxxxxxxxxxxxxxxxxxxxxxxxxxxxxxxxxxxxxxxxxxxxxxxxxxxxxxxxxxxxxxx


------------------------------------------------------------------------ <-- SCF
SCF loop      Energy           Fermi           Energy gain       Timer   <-- SCF
                               energy          per atom          (sec)   <-- SCF
------------------------------------------------------------------------ <-- SCF
Initial  -2.35771704E+004  0.00000000E+000                       489.53  <-- SCF
      1  -2.35771770E+004  3.65621118E+000   2.74862368E-004     499.78  <-- SCF
      2  -2.35771787E+004  3.65620960E+000   7.37699830E-005     512.80  <-- SCF
      3  -2.35771787E+004  3.65703326E+000  -9.42699873E-007     523.91  <-- SCF
      4  -2.35771787E+004  3.65756888E+000  -7.46357796E-007     534.59  <-- SCF
      5  -2.35771787E+004  3.65777003E+000  -3.81905232E-007     544.50  <-- SCF
      6  -2.35771787E+004  3.65798417E+000  -2.07227342E-007     553.77  <-- SCF
      7  -2.35771787E+004  3.65816998E+000  -8.05794164E-008     562.89  <-- SCF
      8  -2.35771787E+004  3.65818038E+000  -9.68418321E-010     571.17  <-- SCF
      9  -2.35771787E+004  3.65817217E+000   4.28718133E-010     578.84  <-- SCF
------------------------------------------------------------------------ <-- SCF
 
Final energy, E             =  -23577.17545695     eV
Final free energy (E-TS)    =  -23577.17866568     eV
(energies not corrected for finite basis set)
 
NB est. 0K energy (E-0.5TS)      =  -23577.17706132     eV
 

 ******************************** Constrained Forces ********************************
 *                                                                                  *
 *                           Cartesian components (eV/A)                            *
 * -------------------------------------------------------------------------------- *
 *                         x                    y                    z              *
 *                                                                                  *
 * P               1      0.00000(cons'd)     -0.00000(cons'd)      0.01152         *
 * P               2      0.00000(cons'd)      0.00000(cons'd)     -0.00498         *
 * P               3     -0.00000(cons'd)     -0.00000(cons'd)     -0.00498         *
 * P               4      0.00000(cons'd)      0.00000(cons'd)      0.01153         *
 * P               5     -0.00000(cons'd)      0.00000(cons'd)      0.00322         *
 * P               6      0.00000(cons'd)      0.00000(cons'd)      0.00554         *
 * P               7     -0.00000(cons'd)     -0.00000(cons'd)      0.00401         *
 * P               8      0.00000(cons'd)      0.00000(cons'd)      0.00322         *
 * P               9     -0.00000(cons'd)      0.00000(cons'd)     -0.00670         *
 * P              10      0.00000(cons'd)      0.00000(cons'd)     -0.00670         *
 * P              11      0.00000(cons'd)      0.00000(cons'd)      0.00554         *
 * P              12     -0.00000(cons'd)     -0.00000(cons'd)      0.00401         *
 * In              1      0.00000(cons'd)     -0.00000(cons'd)      0.00456         *
 * In              2      0.00000(cons'd)      0.00000(cons'd)      0.00053         *
 * In              3      0.00000(cons'd)      0.00000(cons'd)      0.00456         *
 * In              4      0.00000(cons'd)      0.00000(cons'd)      0.00341         *
 * In              5      0.00000(cons'd)     -0.00000(cons'd)     -0.00946         *
 * In              6      0.00000(cons'd)      0.00000(cons'd)     -0.00945         *
 * In              7      0.00000(cons'd)     -0.00000(cons'd)      0.00341         *
 * In              8      0.00000(cons'd)      0.00000(cons'd)      0.00053         *
 * In              9      0.00000(cons'd)      0.00000(cons'd)     -0.00587         *
 * In             10     -0.00000(cons'd)      0.00000(cons'd)     -0.00580         *
 * In             11     -0.00000(cons'd)      0.00000(cons'd)     -0.00580         *
 * In             12      0.00000(cons'd)      0.00000(cons'd)     -0.00587         *
 *                                                                                  *
 ************************************************************************************
  
 +------------+-------------+-------------+-----------------+ <-- min LBFGS
 |    Step    |   lambda    |   F.delta'  |    enthalpy     | <-- min LBFGS
 +------------+-------------+-------------+-----------------+ <-- min LBFGS
 |  previous  |    0.000000 |    0.080241 |   -23577.177780 | <-- min LBFGS
 | trial step |    1.000000 |   -0.008370 |   -23577.178666 | <-- min LBFGS
 +------------+-------------+-------------+-----------------+ <-- min LBFGS
  
 LBFGS: finished iteration     2 with enthalpy= -2.35771787E+004 eV
  
 +-----------+-----------------+-----------------+------------+-----+ <-- LBFGS
 | Parameter |      value      |    tolerance    |    units   | OK? | <-- LBFGS
 +-----------+-----------------+-----------------+------------+-----+ <-- LBFGS
 |  dE/ion   |   3.689567E-005 |   2.000000E-005 |         eV | No  | <-- LBFGS
 |  |F|max   |   1.152862E-002 |   1.000000E-003 |       eV/A | No  | <-- LBFGS
 |  |dR|max  |   6.330491E-003 |   1.000000E-003 |          A | No  | <-- LBFGS
 +-----------+-----------------+-----------------+------------+-----+ <-- LBFGS
  

================================================================================
 Starting LBFGS iteration          3 ...
================================================================================
  
 +------------+-------------+-------------+-----------------+ <-- min LBFGS
 |    Step    |   lambda    |   F.delta'  |    enthalpy     | <-- min LBFGS
 +------------+-------------+-------------+-----------------+ <-- min LBFGS
 |  previous  |    0.000000 |    0.012841 |   -23577.178666 | <-- min LBFGS
 +------------+-------------+-------------+-----------------+ <-- min LBFGS
  

--------------------------------------------------------------------------------
 LBFGS: starting iteration         3 with trial guess (lambda=  1.000000)
--------------------------------------------------------------------------------

                           -------------------------------
                                     Cell Contents
                           -------------------------------

            xxxxxxxxxxxxxxxxxxxxxxxxxxxxxxxxxxxxxxxxxxxxxxxxxxxxxxxxxxxxxxxxx
            x  Element         Atom        Fractional coordinates of atoms  x
            x                 Number           u          v          w      x
            x---------------------------------------------------------------x
            x  P                 1         0.250000   0.018469   0.905705   x
            x  P                 2         0.250000  -0.350130   0.743019   x
            x  P                 3         0.750000   0.149870   0.743019   x
            x  P                 4         0.750000  -0.481531   0.905705   x
            x  P                 5         0.750000   0.044359   0.254602   x
            x  P                 6         0.750000   0.412811   0.417472   x
            x  P                 7         0.750000  -0.218654   0.580238   x
            x  P                 8         0.250000   0.544359   0.254602   x
            x  P                 9         0.250000   0.176289   0.091261   x
            x  P                10         0.750000   0.676289   0.091261   x
            x  P                11         0.250000  -0.087189   0.417472   x
            x  P                12         0.250000   0.281346   0.580238   x
            x  In                1         0.000000  -0.166802   0.825565   x
            x  In                2         0.500000  -0.035004   0.662386   x
            x  In                3         0.500000  -0.666802   0.825565   x
            x  In                4         0.500000  -0.140562   0.174029   x
            x  In                5         0.500000   0.492451   0.009346   x
            x  In                6         0.000000  -0.007549   0.009346   x
            x  In                7         0.000000   0.359438   0.174029   x
            x  In                8         0.000000  -0.535004   0.662386   x
            x  In                9         0.500000  -0.403522   0.499599   x
            x  In               10         0.500000   0.227986   0.336779   x
            x  In               11        -0.000000  -0.272014   0.336779   x
            x  In               12         0.000000   0.096478   0.499599   x
            xxxxxxxxxxxxxxxxxxxxxxxxxxxxxxxxxxxxxxxxxxxxxxxxxxxxxxxxxxxxxxxxx


------------------------------------------------------------------------ <-- SCF
SCF loop      Energy           Fermi           Energy gain       Timer   <-- SCF
                               energy          per atom          (sec)   <-- SCF
------------------------------------------------------------------------ <-- SCF
Initial  -2.35771731E+004  0.00000000E+000                       587.52  <-- SCF
      1  -2.35771786E+004  3.65710803E+000   2.31930035E-004     597.85  <-- SCF
      2  -2.35771787E+004  3.65710797E+000   2.61170330E-006     610.77  <-- SCF
      3  -2.35771787E+004  3.65704067E+000  -3.10039519E-008     620.69  <-- SCF
      4  -2.35771787E+004  3.65701726E+000  -1.00390422E-008     629.76  <-- SCF
      5  -2.35771787E+004  3.65701048E+000  -2.34467313E-009     637.72  <-- SCF
      6  -2.35771787E+004  3.65699585E+000  -2.08481271E-009     645.62  <-- SCF
------------------------------------------------------------------------ <-- SCF
 
Final energy, E             =  -23577.17551573     eV
Final free energy (E-TS)    =  -23577.17869568     eV
(energies not corrected for finite basis set)
 
NB est. 0K energy (E-0.5TS)      =  -23577.17710570     eV
 

 ******************************** Constrained Forces ********************************
 *                                                                                  *
 *                           Cartesian components (eV/A)                            *
 * -------------------------------------------------------------------------------- *
 *                         x                    y                    z              *
 *                                                                                  *
 * P               1      0.00000(cons'd)     -0.00000(cons'd)     -0.00042         *
 * P               2      0.00000(cons'd)      0.00000(cons'd)      0.00129         *
 * P               3     -0.00000(cons'd)      0.00000(cons'd)      0.00129         *
 * P               4      0.00000(cons'd)     -0.00000(cons'd)     -0.00042         *
 * P               5     -0.00000(cons'd)      0.00000(cons'd)     -0.00084         *
 * P               6      0.00000(cons'd)      0.00000(cons'd)     -0.00228         *
 * P               7     -0.00000(cons'd)     -0.00000(cons'd)     -0.00156         *
 * P               8      0.00000(cons'd)      0.00000(cons'd)     -0.00084         *
 * P               9      0.00000(cons'd)      0.00000(cons'd)      0.00207         *
 * P              10     -0.00000(cons'd)      0.00000(cons'd)      0.00207         *
 * P              11     -0.00000(cons'd)      0.00000(cons'd)     -0.00228         *
 * P              12      0.00000(cons'd)      0.00000(cons'd)     -0.00156         *
 * In              1      0.00000(cons'd)      0.00000(cons'd)     -0.00192         *
 * In              2      0.00000(cons'd)     -0.00000(cons'd)     -0.00061         *
 * In              3      0.00000(cons'd)     -0.00000(cons'd)     -0.00192         *
 * In              4     -0.00000(cons'd)     -0.00000(cons'd)     -0.00100         *
 * In              5      0.00000(cons'd)      0.00000(cons'd)      0.00033         *
 * In              6      0.00000(cons'd)      0.00000(cons'd)      0.00033         *
 * In              7      0.00000(cons'd)      0.00000(cons'd)     -0.00100         *
 * In              8      0.00000(cons'd)      0.00000(cons'd)     -0.00061         *
 * In              9      0.00000(cons'd)      0.00000(cons'd)      0.00235         *
 * In             10      0.00000(cons'd)      0.00000(cons'd)      0.00259         *
 * In             11      0.00000(cons'd)     -0.00000(cons'd)      0.00260         *
 * In             12      0.00000(cons'd)      0.00000(cons'd)      0.00235         *
 *                                                                                  *
 ************************************************************************************
  
 +------------+-------------+-------------+-----------------+ <-- min LBFGS
 |    Step    |   lambda    |   F.delta'  |    enthalpy     | <-- min LBFGS
 +------------+-------------+-------------+-----------------+ <-- min LBFGS
 |  previous  |    0.000000 |    0.012841 |   -23577.178666 | <-- min LBFGS
 | trial step |    1.000000 |   -0.002942 |   -23577.178696 | <-- min LBFGS
 +------------+-------------+-------------+-----------------+ <-- min LBFGS
  
 LBFGS: finished iteration     3 with enthalpy= -2.35771787E+004 eV
  
 +-----------+-----------------+-----------------+------------+-----+ <-- LBFGS
 | Parameter |      value      |    tolerance    |    units   | OK? | <-- LBFGS
 +-----------+-----------------+-----------------+------------+-----+ <-- LBFGS
 |  dE/ion   |   1.249998E-006 |   2.000000E-005 |         eV | Yes | <-- LBFGS
 |  |F|max   |   2.597271E-003 |   1.000000E-003 |       eV/A | No  | <-- LBFGS
 |  |dR|max  |   1.057323E-003 |   1.000000E-003 |          A | No  | <-- LBFGS
 +-----------+-----------------+-----------------+------------+-----+ <-- LBFGS
  

================================================================================
 Starting LBFGS iteration          4 ...
================================================================================
  
 +------------+-------------+-------------+-----------------+ <-- min LBFGS
 |    Step    |   lambda    |   F.delta'  |    enthalpy     | <-- min LBFGS
 +------------+-------------+-------------+-----------------+ <-- min LBFGS
 |  previous  |    0.000000 |    0.003205 |   -23577.178696 | <-- min LBFGS
 +------------+-------------+-------------+-----------------+ <-- min LBFGS
  

--------------------------------------------------------------------------------
 LBFGS: starting iteration         4 with trial guess (lambda=  1.000000)
--------------------------------------------------------------------------------

                           -------------------------------
                                     Cell Contents
                           -------------------------------

            xxxxxxxxxxxxxxxxxxxxxxxxxxxxxxxxxxxxxxxxxxxxxxxxxxxxxxxxxxxxxxxxx
            x  Element         Atom        Fractional coordinates of atoms  x
            x                 Number           u          v          w      x
            x---------------------------------------------------------------x
            x  P                 1         0.250000   0.018473   0.905700   x
            x  P                 2         0.250000  -0.350128   0.743016   x
            x  P                 3         0.750000   0.149872   0.743016   x
            x  P                 4         0.750000  -0.481527   0.905700   x
            x  P                 5         0.750000   0.044358   0.254605   x
            x  P                 6         0.750000   0.412814   0.417468   x
            x  P                 7         0.750000  -0.218647   0.580229   x
            x  P                 8         0.250000   0.544358   0.254605   x
            x  P                 9         0.250000   0.176279   0.091273   x
            x  P                10         0.750000   0.676279   0.091273   x
            x  P                11         0.250000  -0.087186   0.417468   x
            x  P                12         0.250000   0.281353   0.580229   x
            x  In                1         0.000000  -0.166793   0.825553   x
            x  In                2         0.500000  -0.034998   0.662378   x
            x  In                3         0.500000  -0.666793   0.825553   x
            x  In                4         0.500000  -0.140564   0.174032   x
            x  In                5         0.500000   0.492449   0.009349   x
            x  In                6         0.000000  -0.007551   0.009349   x
            x  In                7         0.000000   0.359436   0.174032   x
            x  In                8         0.000000  -0.534998   0.662378   x
            x  In                9         0.500000  -0.403527   0.499605   x
            x  In               10         0.500000   0.227977   0.336791   x
            x  In               11        -0.000000  -0.272023   0.336791   x
            x  In               12         0.000000   0.096473   0.499605   x
            xxxxxxxxxxxxxxxxxxxxxxxxxxxxxxxxxxxxxxxxxxxxxxxxxxxxxxxxxxxxxxxxx


------------------------------------------------------------------------ <-- SCF
SCF loop      Energy           Fermi           Energy gain       Timer   <-- SCF
                               energy          per atom          (sec)   <-- SCF
------------------------------------------------------------------------ <-- SCF
Initial  -2.35771759E+004  0.00000000E+000                       654.31  <-- SCF
      1  -2.35771787E+004  3.65713594E+000   1.17619849E-004     664.74  <-- SCF
      2  -2.35771787E+004  3.65713594E+000   1.79886829E-007     675.95  <-- SCF
      3  -2.35771787E+004  3.65714060E+000   1.07991597E-009     683.62  <-- SCF
      4  -2.35771787E+004  3.65714232E+000  -7.32146421E-011     691.48  <-- SCF
------------------------------------------------------------------------ <-- SCF
 
Final energy, E             =  -23577.17551408     eV
Final free energy (E-TS)    =  -23577.17869700     eV
(energies not corrected for finite basis set)
 
NB est. 0K energy (E-0.5TS)      =  -23577.17710554     eV
 

 ******************************** Constrained Forces ********************************
 *                                                                                  *
 *                           Cartesian components (eV/A)                            *
 * -------------------------------------------------------------------------------- *
 *                         x                    y                    z              *
 *                                                                                  *
 * P               1      0.00000(cons'd)     -0.00000(cons'd)      0.00038         *
 * P               2     -0.00000(cons'd)      0.00000(cons'd)      0.00032         *
 * P               3     -0.00000(cons'd)      0.00000(cons'd)      0.00032         *
 * P               4      0.00000(cons'd)      0.00000(cons'd)      0.00038         *
 * P               5     -0.00000(cons'd)      0.00000(cons'd)      0.00002         *
 * P               6      0.00000(cons'd)      0.00000(cons'd)     -0.00018         *
 * P               7      0.00000(cons'd)      0.00000(cons'd)     -0.00010         *
 * P               8     -0.00000(cons'd)      0.00000(cons'd)      0.00002         *
 * P               9      0.00000(cons'd)      0.00000(cons'd)      0.00023         *
 * P              10      0.00000(cons'd)      0.00000(cons'd)      0.00023         *
 * P              11      0.00000(cons'd)      0.00000(cons'd)     -0.00018         *
 * P              12      0.00000(cons'd)     -0.00000(cons'd)     -0.00010         *
 * In              1      0.00000(cons'd)     -0.00000(cons'd)      0.00109         *
 * In              2      0.00000(cons'd)      0.00000(cons'd)      0.00071         *
 * In              3     -0.00000(cons'd)      0.00000(cons'd)      0.00109         *
 * In              4     -0.00000(cons'd)     -0.00000(cons'd)     -0.00014         *
 * In              5      0.00000(cons'd)     -0.00000(cons'd)     -0.00075         *
 * In              6      0.00000(cons'd)      0.00000(cons'd)     -0.00074         *
 * In              7     -0.00000(cons'd)     -0.00000(cons'd)     -0.00014         *
 * In              8      0.00000(cons'd)     -0.00000(cons'd)      0.00071         *
 * In              9     -0.00000(cons'd)      0.00000(cons'd)     -0.00064         *
 * In             10     -0.00000(cons'd)      0.00000(cons'd)     -0.00096         *
 * In             11      0.00000(cons'd)     -0.00000(cons'd)     -0.00096         *
 * In             12     -0.00000(cons'd)     -0.00000(cons'd)     -0.00064         *
 *                                                                                  *
 ************************************************************************************
  
 +------------+-------------+-------------+-----------------+ <-- min LBFGS
 |    Step    |   lambda    |   F.delta'  |    enthalpy     | <-- min LBFGS
 +------------+-------------+-------------+-----------------+ <-- min LBFGS
 |  previous  |    0.000000 |    0.003205 |   -23577.178696 | <-- min LBFGS
 | trial step |    1.000000 |   -0.000949 |   -23577.178697 | <-- min LBFGS
 +------------+-------------+-------------+-----------------+ <-- min LBFGS
  
 LBFGS: finished iteration     4 with enthalpy= -2.35771787E+004 eV
  
 +-----------+-----------------+-----------------+------------+-----+ <-- LBFGS
 | Parameter |      value      |    tolerance    |    units   | OK? | <-- LBFGS
 +-----------+-----------------+-----------------+------------+-----+ <-- LBFGS
 |  dE/ion   |   5.495990E-008 |   2.000000E-005 |         eV | Yes | <-- LBFGS
 |  |F|max   |   1.093159E-003 |   1.000000E-003 |       eV/A | No  | <-- LBFGS
 |  |dR|max  |   2.180700E-004 |   1.000000E-003 |          A | Yes | <-- LBFGS
 +-----------+-----------------+-----------------+------------+-----+ <-- LBFGS
  

================================================================================
 Starting LBFGS iteration          5 ...
================================================================================
  
 +------------+-------------+-------------+-----------------+ <-- min LBFGS
 |    Step    |   lambda    |   F.delta'  |    enthalpy     | <-- min LBFGS
 +------------+-------------+-------------+-----------------+ <-- min LBFGS
 |  previous  |    0.000000 |    0.001043 |   -23577.178697 | <-- min LBFGS
 +------------+-------------+-------------+-----------------+ <-- min LBFGS
  

--------------------------------------------------------------------------------
 LBFGS: starting iteration         5 with trial guess (lambda=  1.000000)
--------------------------------------------------------------------------------

                           -------------------------------
                                     Cell Contents
                           -------------------------------

            xxxxxxxxxxxxxxxxxxxxxxxxxxxxxxxxxxxxxxxxxxxxxxxxxxxxxxxxxxxxxxxxx
            x  Element         Atom        Fractional coordinates of atoms  x
            x                 Number           u          v          w      x
            x---------------------------------------------------------------x
            x  P                 1         0.250000   0.018469   0.905706   x
            x  P                 2         0.250000  -0.350135   0.743025   x
            x  P                 3         0.750000   0.149865   0.743025   x
            x  P                 4         0.750000  -0.481531   0.905706   x
            x  P                 5         0.750000   0.044362   0.254599   x
            x  P                 6         0.750000   0.412821   0.417460   x
            x  P                 7         0.750000  -0.218645   0.580228   x
            x  P                 8         0.250000   0.544362   0.254599   x
            x  P                 9         0.250000   0.176278   0.091275   x
            x  P                10         0.750000   0.676278   0.091275   x
            x  P                11         0.250000  -0.087179   0.417460   x
            x  P                12         0.250000   0.281355   0.580228   x
            x  In                1         0.000000  -0.166800   0.825562   x
            x  In                2         0.500000  -0.035002   0.662383   x
            x  In                3         0.500000  -0.666800   0.825562   x
            x  In                4         0.500000  -0.140561   0.174028   x
            x  In                5         0.500000   0.492448   0.009350   x
            x  In                6         0.000000  -0.007552   0.009350   x
            x  In                7        -0.000000   0.359439   0.174028   x
            x  In                8         0.000000  -0.535002   0.662383   x
            x  In                9         0.500000  -0.403524   0.499601   x
            x  In               10         0.500000   0.227983   0.336783   x
            x  In               11        -0.000000  -0.272017   0.336783   x
            x  In               12        -0.000000   0.096476   0.499601   x
            xxxxxxxxxxxxxxxxxxxxxxxxxxxxxxxxxxxxxxxxxxxxxxxxxxxxxxxxxxxxxxxxx


------------------------------------------------------------------------ <-- SCF
SCF loop      Energy           Fermi           Energy gain       Timer   <-- SCF
                               energy          per atom          (sec)   <-- SCF
------------------------------------------------------------------------ <-- SCF
Initial  -2.35771755E+004  0.00000000E+000                       700.17  <-- SCF
      1  -2.35771787E+004  3.65706998E+000   1.31961120E-004     710.41  <-- SCF
      2  -2.35771787E+004  3.65706998E+000   8.97315045E-008     720.75  <-- SCF
      3  -2.35771787E+004  3.65705557E+000   1.36645849E-009     728.37  <-- SCF
      4  -2.35771787E+004  3.65704204E+000   5.81334570E-010     735.94  <-- SCF
------------------------------------------------------------------------ <-- SCF
 
Final energy, E             =  -23577.17551699     eV
Final free energy (E-TS)    =  -23577.17869720     eV
(energies not corrected for finite basis set)
 
NB est. 0K energy (E-0.5TS)      =  -23577.17710710     eV
 

 ******************************** Constrained Forces ********************************
 *                                                                                  *
 *                           Cartesian components (eV/A)                            *
 * -------------------------------------------------------------------------------- *
 *                         x                    y                    z              *
 *                                                                                  *
 * P               1      0.00000(cons'd)     -0.00000(cons'd)      0.00036         *
 * P               2     -0.00000(cons'd)     -0.00000(cons'd)     -0.00001         *
 * P               3     -0.00000(cons'd)     -0.00000(cons'd)     -0.00001         *
 * P               4      0.00000(cons'd)      0.00000(cons'd)      0.00036         *
 * P               5      0.00000(cons'd)      0.00000(cons'd)     -0.00013         *
 * P               6      0.00000(cons'd)      0.00000(cons'd)      0.00020         *
 * P               7      0.00000(cons'd)     -0.00000(cons'd)      0.00038         *
 * P               8      0.00000(cons'd)      0.00000(cons'd)     -0.00013         *
 * P               9     -0.00000(cons'd)      0.00000(cons'd)     -0.00060         *
 * P              10     -0.00000(cons'd)      0.00000(cons'd)     -0.00060         *
 * P              11      0.00000(cons'd)      0.00000(cons'd)      0.00020         *
 * P              12     -0.00000(cons'd)     -0.00000(cons'd)      0.00038         *
 * In              1      0.00000(cons'd)      0.00000(cons'd)     -0.00045         *
 * In              2      0.00000(cons'd)      0.00000(cons'd)     -0.00036         *
 * In              3      0.00000(cons'd)      0.00000(cons'd)     -0.00045         *
 * In              4     -0.00000(cons'd)      0.00000(cons'd)      0.00075         *
 * In              5      0.00000(cons'd)     -0.00000(cons'd)     -0.00021         *
 * In              6      0.00000(cons'd)      0.00000(cons'd)     -0.00021         *
 * In              7      0.00000(cons'd)      0.00000(cons'd)      0.00075         *
 * In              8      0.00000(cons'd)      0.00000(cons'd)     -0.00036         *
 * In              9      0.00000(cons'd)      0.00000(cons'd)     -0.00014         *
 * In             10      0.00000(cons'd)     -0.00000(cons'd)      0.00018         *
 * In             11      0.00000(cons'd)     -0.00000(cons'd)      0.00018         *
 * In             12     -0.00000(cons'd)      0.00000(cons'd)     -0.00014         *
 *                                                                                  *
 ************************************************************************************
  
 +------------+-------------+-------------+-----------------+ <-- min LBFGS
 |    Step    |   lambda    |   F.delta'  |    enthalpy     | <-- min LBFGS
 +------------+-------------+-------------+-----------------+ <-- min LBFGS
 |  previous  |    0.000000 |    0.001043 |   -23577.178697 | <-- min LBFGS
 | trial step |    1.000000 |   -0.000384 |   -23577.178697 | <-- min LBFGS
 +------------+-------------+-------------+-----------------+ <-- min LBFGS
  
[...]
            x  In               12        -0.000000   0.096476   0.499601   x
            xxxxxxxxxxxxxxxxxxxxxxxxxxxxxxxxxxxxxxxxxxxxxxxxxxxxxxxxxxxxxxxxx


 LBFGS: Final Enthalpy     = -2.35771787E+004 eV
 LBFGS: Final <frequency>  =     411.16562 cm-1

 ******************* Unconstrained Forces *******************
 *                                                          *
 *               Cartesian components (eV/A)                *
 * -------------------------------------------------------- *
 *                         x            y            z      *
 *                                                          *
 * P               1      0.33216     -1.40051      0.00036 *
 * P               2     -0.19722     -0.11304     -0.00001 *
 * P               3     -0.19722     -0.11304     -0.00001 *
 * P               4      0.33216     -1.40051      0.00036 *
 * P               5     -0.00850      0.06320     -0.00013 *
 * P               6     -0.00649      0.00923      0.00020 *
 * P               7     -0.02854     -0.01714      0.00038 *
 * P               8     -0.00850      0.06320     -0.00013 *
 * P               9     -0.04923      0.44953     -0.00060 *
 * P              10     -0.04923      0.44953     -0.00060 *
 * P              11     -0.00649      0.00923      0.00020 *
 * P              12     -0.02854     -0.01714      0.00038 *
 * In              1      0.20872      0.29339     -0.00045 *
 * In              2      0.02633      0.04747     -0.00036 *
 * In              3      0.20872      0.29339     -0.00045 *
 * In              4      0.14432      0.01134      0.00075 *
 * In              5     -0.45321      0.64678     -0.00021 *
 * In              6     -0.45321      0.64678     -0.00021 *
 * In              7      0.14432      0.01134      0.00075 *
 * In              8      0.02633      0.04747     -0.00036 *
 * In              9      0.00827      0.00695     -0.00014 *
 * In             10      0.02339      0.00281      0.00018 *
 * In             11      0.02339      0.00281      0.00018 *
 * In             12      0.00827      0.00695     -0.00014 *
 *                                                          *
 ************************************************************

 ******************************** Constrained Forces ********************************
 *                                                                                  *
 *                           Cartesian components (eV/A)                            *
 * -------------------------------------------------------------------------------- *
 *                         x                    y                    z              *
 *                                                                                  *
 * P               1      0.00000(cons'd)     -0.00000(cons'd)      0.00036         *
 * P               2     -0.00000(cons'd)     -0.00000(cons'd)     -0.00001         *
 * P               3     -0.00000(cons'd)     -0.00000(cons'd)     -0.00001         *
 * P               4      0.00000(cons'd)      0.00000(cons'd)      0.00036         *
 * P               5      0.00000(cons'd)      0.00000(cons'd)     -0.00013         *
 * P               6      0.00000(cons'd)      0.00000(cons'd)      0.00020         *
 * P               7      0.00000(cons'd)     -0.00000(cons'd)      0.00038         *
 * P               8      0.00000(cons'd)      0.00000(cons'd)     -0.00013         *
 * P               9     -0.00000(cons'd)      0.00000(cons'd)     -0.00060         *
 * P              10     -0.00000(cons'd)      0.00000(cons'd)     -0.00060         *
 * P              11      0.00000(cons'd)      0.00000(cons'd)      0.00020         *
 * P              12     -0.00000(cons'd)     -0.00000(cons'd)      0.00038         *
 * In              1      0.00000(cons'd)      0.00000(cons'd)     -0.00045         *
 * In              2      0.00000(cons'd)      0.00000(cons'd)     -0.00036         *
 * In              3      0.00000(cons'd)      0.00000(cons'd)     -0.00045         *
 * In              4     -0.00000(cons'd)      0.00000(cons'd)      0.00075         *
 * In              5      0.00000(cons'd)     -0.00000(cons'd)     -0.00021         *
 * In              6      0.00000(cons'd)      0.00000(cons'd)     -0.00021         *
 * In              7      0.00000(cons'd)      0.00000(cons'd)      0.00075         *
 * In              8      0.00000(cons'd)      0.00000(cons'd)     -0.00036         *
 * In              9      0.00000(cons'd)      0.00000(cons'd)     -0.00014         *
 * In             10      0.00000(cons'd)     -0.00000(cons'd)      0.00018         *
 * In             11      0.00000(cons'd)     -0.00000(cons'd)      0.00018         *
 * In             12     -0.00000(cons'd)      0.00000(cons'd)     -0.00014         *
 *                                                                                  *
 ************************************************************************************

 Pseudo atomic calculation performed for P 3s2 3p3

 Converged in 23 iterations to a total energy of -208.0292 eV

 Pseudo atomic calculation performed for In 4d10 5s2 5p1

 Converged in 42 iterations to a total energy of -1747.4500 eV
Charge spilling parameter for spin component 1 = 0.17%

            Orbital Populations       
     Ion    Atom   Orbital             Charge
  -------------------------------------------
      P     1      S                    1.737
      P     1      Px                   1.309
      P     1      Py                   1.361
      P     1      Pz                   1.274
      P     2      S                    1.732
      P     2      Px                   1.311
      P     2      Py                   1.313
      P     2      Pz                   1.318
      P     3      S                    1.732
      P     3      Px                   1.311
      P     3      Py                   1.313
      P     3      Pz                   1.318
      P     4      S                    1.737
      P     4      Px                   1.309
      P     4      Py                   1.361
      P     4      Pz                   1.274
      P     5      S                    1.729
      P     5      Px                   1.315
      P     5      Py                   1.315
      P     5      Pz                   1.320
      P     6      S                    1.729
      P     6      Px                   1.316
      P     6      Py                   1.316
      P     6      Pz                   1.320
      P     7      S                    1.729
      P     7      Px                   1.316
      P     7      Py                   1.316
      P     7      Pz                   1.320
      P     8      S                    1.729
      P     8      Px                   1.315
      P     8      Py                   1.315
      P     8      Pz                   1.320
      P     9      S                    1.740
      P     9      Px                   1.304
      P     9      Py                   1.300
      P     9      Pz                   1.317
      P    10      S                    1.740
      P    10      Px                   1.304
      P    10      Py                   1.300
      P    10      Pz                   1.317
      P    11      S                    1.729
      P    11      Px                   1.316
      P    11      Py                   1.316
      P    11      Pz                   1.320
      P    12      S                    1.729
      P    12      Px                   1.316
      P    12      Py                   1.316
      P    12      Pz                   1.320
     In     1      Dzz                  1.999
     In     1      Dzy                  1.997
     In     1      Dzx                  1.997
     In     1      Dxx-yy               1.999
     In     1      Dxy                  1.996
     In     1      S                    1.430
     In     1      Px                   0.495
     In     1      Py                   0.481
     In     1      Pz                   0.479
     In     1      S                   -0.527
     In     2      Dzz                  1.999
     In     2      Dzy                  1.997
     In     2      Dzx                  1.997
     In     2      Dxx-yy               1.999
     In     2      Dxy                  1.997
     In     2      S                    1.436
     In     2      Px                   0.491
     In     2      Py                   0.490
     In     2      Pz                   0.477
     In     2      S                   -0.565
     In     3      Dzz                  1.999
     In     3      Dzy                  1.997
     In     3      Dzx                  1.997
     In     3      Dxx-yy               1.999
     In     3      Dxy                  1.996
     In     3      S                    1.430
     In     3      Px                   0.495
     In     3      Py                   0.481
     In     3      Pz                   0.479
     In     3      S                   -0.527
     In     4      Dzz                  1.999
     In     4      Dzy                  1.997
     In     4      Dzx                  1.997
     In     4      Dxx-yy               1.999
     In     4      Dxy                  1.997
     In     4      S                    1.435
     In     4      Px                   0.491
     In     4      Py                   0.489
     In     4      Pz                   0.472
     In     4      S                   -0.529
     In     5      Dzz                  1.998
     In     5      Dzy                  1.998
     In     5      Dzx                  1.995
     In     5      Dxx-yy               1.999
     In     5      Dxy                  1.997
     In     5      S                    1.456
     In     5      Px                   0.457
     In     5      Py                   0.435
     In     5      Pz                   0.504
     In     5      S                   -0.514
     In     6      Dzz                  1.998
     In     6      Dzy                  1.998
     In     6      Dzx                  1.995
     In     6      Dxx-yy               1.999
     In     6      Dxy                  1.997
     In     6      S                    1.456
     In     6      Px                   0.457
     In     6      Py                   0.435
     In     6      Pz                   0.504
     In     6      S                   -0.514
     In     7      Dzz                  1.999
     In     7      Dzy                  1.997
     In     7      Dzx                  1.997
     In     7      Dxx-yy               1.999
     In     7      Dxy                  1.997
     In     7      S                    1.435
     In     7      Px                   0.491
     In     7      Py                   0.489
     In     7      Pz                   0.472
     In     7      S                   -0.529
     In     8      Dzz                  1.999
     In     8      Dzy                  1.997
     In     8      Dzx                  1.997
     In     8      Dxx-yy               1.999
     In     8      Dxy                  1.997
     In     8      S                    1.436
     In     8      Px                   0.491
     In     8      Py                   0.490
     In     8      Pz                   0.477
     In     8      S                   -0.565
     In     9      Dzz                  1.999
     In     9      Dzy                  1.997
     In     9      Dzx                  1.997
     In     9      Dxx-yy               1.999
     In     9      Dxy                  1.997
     In     9      S                    1.434
     In     9      Px                   0.489
     In     9      Py                   0.489
     In     9      Pz                   0.478
     In     9      S                   -0.572
     In    10      Dzz                  1.999
     In    10      Dzy                  1.997
     In    10      Dzx                  1.997
     In    10      Dxx-yy               1.999
     In    10      Dxy                  1.997
     In    10      S                    1.436
     In    10      Px                   0.489
     In    10      Py                   0.488
     In    10      Pz                   0.477
     In    10      S                   -0.576
     In    11      Dzz                  1.999
     In    11      Dzy                  1.997
     In    11      Dzx                  1.997
     In    11      Dxx-yy               1.999
     In    11      Dxy                  1.997
     In    11      S                    1.436
     In    11      Px                   0.489
     In    11      Py                   0.488
     In    11      Pz                   0.477
     In    11      S                   -0.576
     In    12      Dzz                  1.999
     In    12      Dzy                  1.997
     In    12      Dzx                  1.997
     In    12      Dxx-yy               1.999
     In    12      Dxy                  1.997
     In    12      S                    1.434
     In    12      Px                   0.489
     In    12      Py                   0.489
     In    12      Pz                   0.478
     In    12      S                   -0.572
  -------------------------------------------
                           Total:     216.000
  -------------------------------------------

     Atomic Populations (Mulliken)
     -----------------------------
Species          Ion     s       p       d       f      Total   Charge (e)
==========================================================================
  P               1     1.737   3.943   0.000   0.000   5.681    -0.681
  P               2     1.732   3.942   0.000   0.000   5.674    -0.674
  P               3     1.732   3.942   0.000   0.000   5.674    -0.674
  P               4     1.737   3.943   0.000   0.000   5.681    -0.681
  P               5     1.729   3.950   0.000   0.000   5.680    -0.680
  P               6     1.729   3.952   0.000   0.000   5.681    -0.681
  P               7     1.729   3.952   0.000   0.000   5.680    -0.680
  P               8     1.729   3.950   0.000   0.000   5.680    -0.680
  P               9     1.740   3.922   0.000   0.000   5.662    -0.662
  P              10     1.740   3.922   0.000   0.000   5.662    -0.662
  P              11     1.729   3.952   0.000   0.000   5.681    -0.681
  P              12     1.729   3.952   0.000   0.000   5.680    -0.680
  In              1     0.903   1.455   9.988   0.000  12.346     0.654
  In              2     0.871   1.457   9.988   0.000  12.317     0.683
  In              3     0.903   1.455   9.988   0.000  12.346     0.654
  In              4     0.906   1.452   9.988   0.000  12.347     0.653
  In              5     0.942   1.397   9.988   0.000  12.326     0.674
  In              6     0.942   1.397   9.988   0.000  12.326     0.674
  In              7     0.906   1.452   9.988   0.000  12.347     0.653
  In              8     0.871   1.457   9.988   0.000  12.317     0.683
  In              9     0.862   1.455   9.988   0.000  12.305     0.695
  In             10     0.860   1.454   9.988   0.000  12.302     0.698
  In             11     0.860   1.454   9.988   0.000  12.302     0.698
  In             12     0.862   1.455   9.988   0.000  12.305     0.695
==========================================================================

                 Bond                   Population      Length (A)
======================================================================
              P 1  -- In 6                   0.95        2.37894
              P 4  -- In 5                   0.95        2.37894
              P 1  -- In 1                   0.64        2.52315
              P 4  -- In 3                   0.64        2.52315
              P 4  -- In 1                   0.66        2.52315
              P 1  -- In 3                   0.66        2.52315
              P 5  -- In 4                   0.58        2.52741
              P 8  -- In 7                   0.58        2.52741
              P 8  -- In 4                   0.62        2.52741
              P 5  -- In 7                   0.62        2.52741
              P 7  -- In 9                   0.61        2.52796
              P 12 -- In 12                  0.61        2.52796
              P 12 -- In 9                   0.62        2.52796
              P 7  -- In 12                  0.62        2.52796
              P 3  -- In 2                   0.61        2.52811
              P 2  -- In 8                   0.61        2.52811
              P 2  -- In 2                   0.59        2.52811
              P 3  -- In 8                   0.59        2.52811
              P 6  -- In 10                  0.60        2.52846
              P 11 -- In 11                  0.60        2.52846
              P 11 -- In 10                  0.60        2.52846
              P 6  -- In 11                  0.60        2.52846
              P 10 -- In 5                   0.50        2.54101
              P 9  -- In 6                   0.50        2.54101
              P 9  -- In 5                   0.64        2.54101
              P 10 -- In 6                   0.64        2.54101
              P 6  -- In 12                  0.57        2.54320
              P 11 -- In 12                  0.57        2.54320
              P 6  -- In 9                   0.57        2.54320
              P 11 -- In 9                   0.57        2.54320
              P 7  -- In 8                   0.56        2.54335
              P 12 -- In 8                   0.56        2.54335
              P 7  -- In 2                   0.56        2.54335
              P 12 -- In 2                   0.56        2.54335
              P 5  -- In 11                  0.57        2.54364
              P 8  -- In 11                  0.57        2.54364
              P 5  -- In 10                  0.57        2.54364
              P 8  -- In 10                  0.57        2.54364
              P 3  -- In 3                   0.59        2.54721
              P 2  -- In 3                   0.55        2.54721
              P 3  -- In 1                   0.55        2.54721
              P 2  -- In 1                   0.59        2.54721
              P 9  -- In 7                   0.55        2.54941
              P 10 -- In 7                   0.55        2.54941
              P 9  -- In 4                   0.55        2.54941
              P 10 -- In 4                   0.55        2.54941
======================================================================


     Hirshfeld Analysis
     ------------------
Species   Ion     Hirshfeld Charge (e)
======================================
  P        1                -0.28
  P        2                -0.23
  P        3                -0.23
  P        4                -0.28
  P        5                -0.24
  P        6                -0.24
  P        7                -0.24
  P        8                -0.24
  P        9                -0.23
  P       10                -0.23
  P       11                -0.24
  P       12                -0.24
  In       1                 0.24
  In       2                 0.24
  In       3                 0.24
  In       4                 0.23
  In       5                 0.27
  In       6                 0.27
  In       7                 0.23
  In       8                 0.24
  In       9                 0.24
  In      10                 0.24
  In      11                 0.24
  In      12                 0.24
======================================

 
 A BibTeX formatted list of references used in this run has been written to 
 StackingFaultStructs_(0_0_1)_(1_0_0)_7.bib
 
Initialisation time =     20.23 s
Calculation time    =    730.43 s
Finalisation time   =      0.93 s
Total time          =    751.58 s
Peak Memory Use     = 2233220 kB
 
Overall parallel efficiency rating: Mediocre (56%)
 
Data was distributed by:-
G-vector (6-way); efficiency rating: Satisfactory (60%)
k-point (40-way); efficiency rating: Very good (87%)
