 +-------------------------------------------------+
 |                                                 |
 |      CCC   AA    SSS  TTTTT  EEEEE  PPPP        |
 |     C     A  A  S       T    E      P   P       |
 |     C     AAAA   SS     T    EEE    PPPP        |
 |     C     A  A     S    T    E      P           |
 |      CCC  A  A  SSS     T    EEEEE  P           |
 |                                                 |
 +-------------------------------------------------+
 |                                                 |
 | Welcome to Academic Release CASTEP version 20.11|          
 | Ab Initio Total Energy Program                  |
 |                                                 |
 | Authors:                                        |
 | M. Segall, M. Probert, C. Pickard, P. Hasnip,   |
 | S. Clark, K. Refson, J. R. Yates, M. Payne      |
 |                                                 |
 | Contributors:                                   |
 | P. Lindan, P. Haynes, J. White, V. Milman,      |
 | N. Govind, M. Gibson, P. Tulip, V. Cocula,      |
 | B. Montanari, D. Quigley, M. Glover,            |
 | L. Bernasconi, A. Perlov, M. Plummer,           |
 | E. McNellis, J. Meyer, J. Gale, D. Jochym       |
 | J. Aarons, B. Walker, R. Gillen, D. Jones       |
 | T. Green, I. J. Bush, C. J. Armstrong,          |
 | E. J. Higgins, E. L. Brown, M. S. McFly,        |
 | J. Wilkins, B-C. Shih, P. J. P. Byrne,          |
 | R. J. Maurer, J. C. Womack, J. Dziedzic,        |
 | J. R. Kermode, A. Bartok-Partay                 |
 |                                                 |
 | Copyright (c) 2000 - 2020                       |
 |                                                 |
 |     Distributed under license from Cambridge    |
 |     Enterprise for academic use only.           |
 |                                                 |
 | Please cite                                     |
 |                                                 |
 |     "First principles methods using CASTEP"     |
 |                                                 |
 |         Zeitschrift fuer Kristallographie       |
 |           220(5-6) pp. 567-570 (2005)           |
 |                                                 |
 | S. J. Clark, M. D. Segall, C. J. Pickard,       |
 | P. J. Hasnip, M. J. Probert, K. Refson,         |
 | M. C. Payne                                     |
 |                                                 |
 |       in all publications arising from          |
 |              your use of CASTEP                 |
 |                                                 |
 +-------------------------------------------------+
 |                                                 |
 |              http://www.castep.org              |
 |                                                 |
 +-------------------------------------------------+
 
 
 
 Compiled for linux_x86_64_ifort on Wed, 25 Aug 2021 18:50:38 +0100
 from code version e772bf432+  HEAD  Sat Apr 3 17:41:32 2021 +0100
 Compiler: Intel Fortran 19.0.5.281; Optimisation: fast
 MATHLIBS: Intel MKL(2019.0.5) (LAPACK version 3.7.0)
 FFT Lib : mkl
 Fundamental constants values: CODATA 2014
 
 Run started: Fri, 16 Dec 2022 05:34:51 +0000
 
 Atomic calculation performed for P: 1s2 2s2 2p6 3s2 3p3
 
 Exceeded max iterations: converged to -0.000003405 eV
 The ae energy is -9309.074 eV
 
   ============================================================                
   | Pseudopotential Report - Date of generation 16-12-2022   |                
   ------------------------------------------------------------                
   | Element: P Ionic charge:  5.00 Level of theory: RSCAN    |                
   | Atomic Solver: Koelling-Harmon                           |                
   |                                                          |                
   |               Reference Electronic Structure             |                
   |         Orbital         Occupation         Energy        |                
   |            3s              2.000           -0.535        |                
   |            3p              3.000           -0.209        |                
   |                                                          |                
   |                 Pseudopotential Definition               |                
   |        Beta     l      e      Rc     scheme   norm       |                
   |          1      0   -0.535   1.807     qc      0         |                
   |          2      0    0.250   1.807     qc      0         |                
   |          3      1   -0.209   1.807     qc      0         |                
   |          4      1    0.250   1.807     qc      0         |                
   |          5      2    0.000   1.807     qc      0         |                
   |          6      2    0.250   1.807     qc      0         |                
   |         loc     3    0.000   1.807     pn      0         |                
   |                                                          |                
   | Augmentation charge Rinner = 1.263                       |                
   | Partial core correction Rc = 1.263                       |                
   ------------------------------------------------------------                
   | "3|1.8|4|4|5|30:31:32"                                   |                
   ------------------------------------------------------------                
   |      Author: Chris J. Pickard, Cambridge University      |                
   ============================================================                
 Warning: ion_atom_output_psp cannot write out meta-GGA pseudopotentials present
 ly.
 
 Atomic calculation performed for In:
 1s2 2s2 2p6 3s2 3p6 3d10 4s2 4p6 4d10 5s2 5p1
 
 Exceeded max iterations: converged to -0.000725459 eV
 The ae energy is -160093.321 eV
 
   ============================================================                
   | Pseudopotential Report - Date of generation 16-12-2022   |                
   ------------------------------------------------------------                
   | Element: In Ionic charge: 13.00 Level of theory: RSCAN   |                
   | Atomic Solver: Koelling-Harmon                           |                
   |                                                          |                
   |               Reference Electronic Structure             |                
   |         Orbital         Occupation         Energy        |                
   |            4d             10.000           -0.711        |                
   |            5s              2.000           -0.313        |                
   |            5p              1.000           -0.095        |                
   |                                                          |                
   |                 Pseudopotential Definition               |                
   |        Beta     l      e      Rc     scheme   norm       |                
   |          1      0   -0.313   2.501     qc      0         |                
   |          2      0    0.250   2.501     qc      0         |                
   |          3      1   -0.095   2.501     qc      0         |                
   |          4      1    0.250   2.501     qc      0         |                
   |          5      2   -0.711   2.207     qc      0         |                
   |          6      2    0.250   2.207     qc      0         |                
   |         loc     3    0.000   2.501     pn      0         |                
   |                                                          |                
   | Augmentation charge Rinner = 1.504                       |                
   | Partial core correction Rc = 1.504                       |                
   ------------------------------------------------------------                
   | "3|2.5|2.5|1.5|7|8|9|50:51:42U2.2U2.2"                   |                
   ------------------------------------------------------------                
   |      Author: Chris J. Pickard, Cambridge University      |                
   ============================================================                
 Warning: ion_atom_output_psp cannot write out meta-GGA pseudopotentials present
 ly.
 
 Pseudo atomic calculation performed for P 3s2 3p3
 
 Converged in 23 iterations to a total energy of -208.0292 eV
 
 Pseudo atomic calculation performed for In 4d10 5s2 5p1
 
 Converged in 42 iterations to a total energy of -1747.4504 eV
 Calculation parallelised over 32 processes.
 Data is distributed by k-point(32-way)

 ************************************ Title ************************************
 

 ***************************** General Parameters ******************************
  
 output verbosity                               : normal  (1)
 write checkpoint data to                       : ZB_EOS_1.1042.check
 type of calculation                            : single point energy
 stress calculation                             : on
 density difference calculation                 : off
 electron localisation func (ELF) calculation   : off
 Hirshfeld analysis                             : off
 molecular orbital projected DOS                : off
 deltaSCF calculation                           : off
 unlimited duration calculation
 timing information                             : on
 memory usage estimate                          : on
 write extra output files                       : on
 write final potential to formatted file        : off
 write final density to formatted file          : off
 write BibTeX reference list                    : on
 write OTFG pseudopotential files               : on
 write electrostatic potential file             : on
 write bands file                               : on
 checkpoint writing                             : off
  
 output         length unit                     : A
 output           mass unit                     : amu
 output           time unit                     : ps
 output         charge unit                     : e
 output           spin unit                     : hbar/2
 output         energy unit                     : eV
 output          force unit                     : eV/A
 output       velocity unit                     : A/ps
 output       pressure unit                     : GPa
 output     inv_length unit                     : 1/A
 output      frequency unit                     : cm-1
 output force constant unit                     : eV/A**2
 output         volume unit                     : A**3
 output   IR intensity unit                     : (D/A)**2/amu
 output         dipole unit                     : D
 output         efield unit                     : eV/A/e
 output        entropy unit                     : J/mol/K
 output    efield chi2 unit                     : pm/V
  
 wavefunctions paging                           : none
 random number generator seed                   : randomised (53451734)
 data distribution                              : optimal for this architecture
 optimization strategy                          : balance speed and memory

 *********************** Exchange-Correlation Parameters ***********************
  
 using functional                               : RSCAN
 relativistic treatment                         : Koelling-Harmon
 DFT+D: Semi-empirical dispersion correction    : off

 ************************* Pseudopotential Parameters **************************
  
 pseudopotential representation                 : reciprocal space
 <beta|phi> representation                      : reciprocal space
 spin-orbit coupling                            : off

 **************************** Basis Set Parameters *****************************
  
 plane wave basis set cut-off                   :   900.0000   eV
 size of standard grid                          :     1.7500
 size of   fine   gmax                          :    26.8966   1/A
 finite basis set correction                    : automatic
 number of sample energies                      :          3
           sample  spacing                      :     5.0000   eV

 **************************** Electronic Parameters ****************************
  
 number of  electrons                           :  72.00    
 net charge of system                           :  0.000    
 treating system as non-spin-polarized
 number of bands                                :         43

 ********************* Electronic Minimization Parameters **********************
  
 Method: Treating system as metallic with density mixing treatment of electrons,
         and number of  SD  steps               :          1
         and number of  CG  steps               :          4
  
 total energy / atom convergence tol.           : 0.1000E-07   eV
 eigen-energy convergence tolerance             : 0.2222E-08   eV
 max force / atom convergence tol.              : ignored
 convergence tolerance window                   :          3   cycles
 max. number of SCF cycles                      :         30
 number of fixed-spin iterations                :         10
 smearing scheme                                : Gaussian
 smearing width                                 : 0.2000       eV
 Fermi energy convergence tolerance             : 0.2721E-13   eV
 periodic dipole correction                     : NONE

 ************************** Density Mixing Parameters **************************
  
 density-mixing scheme                          : Broyden
 max. length of mixing history                  :         20
 charge density mixing amplitude                : 0.8000    
 cut-off energy for mixing                      :  900.0       eV

 *********************** Population Analysis Parameters ************************
  
 Population analysis with cutoff                :  3.000       A
 Population analysis output                     : summary and pdos components

 *******************************************************************************
  
 
                           -------------------------------
                                      Unit Cell
                           -------------------------------
        Real Lattice(A)                      Reciprocal Lattice(1/A)
     6.5161910     0.0000000     0.0000000        0.964242041   0.000000000   0.000000000
     0.0000000     6.5161910     0.0000000        0.000000000   0.964242041   0.000000000
     0.0000000     0.0000000     6.5161910        0.000000000   0.000000000   0.964242041
 
                       Lattice parameters(A)       Cell Angles
                    a =      6.516191          alpha =   90.000000
                    b =      6.516191          beta  =   90.000000
                    c =      6.516191          gamma =   90.000000
 
                       Current cell volume =           276.682325       A**3
                                   density =             2.107713   AMU/A**3
                                           =             3.499940     g/cm^3
 
                           -------------------------------
                                     Cell Contents
                           -------------------------------
                         Total number of ions in cell =    8
                      Total number of species in cell =    2
                        Max number of any one species =    4
 
            xxxxxxxxxxxxxxxxxxxxxxxxxxxxxxxxxxxxxxxxxxxxxxxxxxxxxxxxxxxx
            x  Element    Atom        Fractional coordinates of atoms  x
            x            Number           u          v          w      x
            x----------------------------------------------------------x
            x  P            1         0.250000   0.250000   0.750000   x 
            x  P            2         0.750000   0.250000   0.250000   x 
            x  P            3         0.250000   0.750000   0.250000   x 
            x  P            4         0.750000   0.750000   0.750000   x 
            x  In           1         0.000000   0.000000   0.000000   x 
            x  In           2         0.500000   0.000000   0.500000   x 
            x  In           3         0.000000   0.500000   0.500000   x 
            x  In           4         0.500000   0.500000   0.000000   x 
            xxxxxxxxxxxxxxxxxxxxxxxxxxxxxxxxxxxxxxxxxxxxxxxxxxxxxxxxxxxx
 
 
                         No user defined ionic velocities
 
                           -------------------------------
                                   Details of Species
                           -------------------------------
 
                               Mass of species in AMU
                                    P   30.9737600
                                    In  114.8180000
 
                          Electric Quadrupole Moment (Barn)
                                    P    1.0000000 No Isotope Defined
                                    In    0.7700000 Isotope115
 
                          Files used for pseudopotentials:
                                    P 3|1.8|4|4|5|30:31:32
                                    In 3|2.5|2.5|1.5|7|8|9|50:51:42U2.2U2.2
 
                           -------------------------------
                              k-Points For BZ Sampling
                           -------------------------------
                       MP grid size for SCF calculation is  7  7  7
                            with an offset of   0.071  0.071  0.071
                       Number of kpoints used =           172
 
                           -------------------------------
                               Symmetry and Constraints
                           -------------------------------
 
                      Cell is a supercell containing 4 primitive cells
                      Maximum deviation from symmetry =  0.00000         ANG
 
                      Number of symmetry operations   =           1
                      Number of ionic constraints     =           3
                      Point group of crystal =     1: C1, 1, 1
                      Space group of crystal =   216: F-43m, F -4 2 3
 
             Set iprint > 1 for details on symmetry rotations/translations
 
                         Centre of mass is constrained
             Set iprint > 1 for details of linear ionic constraints
 
                         Number of cell constraints= 0
                         Cell constraints are:  1 2 3 4 5 6
 
                         External pressure/stress (GPa)
                          0.00000   0.00000   0.00000
                                    0.00000   0.00000
                                              0.00000
  
+---------------- MEMORY AND SCRATCH DISK ESTIMATES PER PROCESS --------------+
|                                                     Memory          Disk    |
| Baseline code, static data and system overhead      391.0 MB         0.0 MB |
| BLAS internal memory storage                          0.0 MB         0.0 MB |
| Model and support data                              340.3 MB      1146.6 MB |
| Electronic energy minimisation requirements         239.5 MB         0.0 MB |
| Force calculation requirements                       31.3 MB         0.0 MB |
| Stress calculation requirements                      34.6 MB         0.0 MB |
|                                               ----------------------------- |
| Approx. total storage required per process          970.8 MB      1146.6 MB |
|                                                                             |
| Requirements will fluctuate during execution and may exceed these estimates |
+-----------------------------------------------------------------------------+
Calculating finite basis set correction with  3 cut-off energies.
Calculating total energy with cut-off of  890.000 eV.
------------------------------------------------------------------------ <-- SCF
SCF loop      Energy           Fermi           Energy gain       Timer   <-- SCF
                               energy          per atom          (sec)   <-- SCF
------------------------------------------------------------------------ <-- SCF
Initial  -6.17121812E+003  0.00000000E+000                        25.54  <-- SCF
      1  -7.60446599E+003  2.82665609E+000   1.79155984E+002      89.78  <-- SCF
      2  -7.82436523E+003  4.90655963E-001   2.74874047E+001     131.97  <-- SCF
      3  -7.83081454E+003  6.24232964E-002   8.06163698E-001     176.03  <-- SCF
      4  -7.85761828E+003  7.41499529E-001   3.35046824E+000     230.04  <-- SCF
      5  -7.85764355E+003  7.40568806E-001   3.15882274E-003     284.66  <-- SCF
      6  -7.85858122E+003  7.11950413E-001   1.17207698E-001     337.60  <-- SCF
      7  -7.85674471E+003  8.28795456E-001  -2.29562967E-001     389.69  <-- SCF
      8  -7.85696361E+003  8.73899031E-001   2.73627782E-002     441.98  <-- SCF
      9  -7.85696307E+003  8.88529729E-001  -6.82729419E-005     501.55  <-- SCF
     10  -7.85696417E+003  9.00095102E-001   1.37205630E-004     553.97  <-- SCF
     11  -7.85696444E+003  9.05593287E-001   3.47620914E-005     607.87  <-- SCF
     12  -7.85696452E+003  9.05279894E-001   9.75913618E-006     661.15  <-- SCF
     13  -7.85696452E+003  9.05455169E-001  -7.49264211E-008     710.93  <-- SCF
     14  -7.85696453E+003  9.05571604E-001   5.03413438E-007     758.29  <-- SCF
     15  -7.85696453E+003  9.05599539E-001   1.17494033E-008     799.97  <-- SCF
     16  -7.85696453E+003  9.05593399E-001   1.85653255E-009     837.50  <-- SCF
     17  -7.85696453E+003  9.05593259E-001   2.99110171E-010     875.24  <-- SCF
------------------------------------------------------------------------ <-- SCF
 
Final energy, E             =  -7856.961953396     eV
Final free energy (E-TS)    =  -7856.964526097     eV
(energies not corrected for finite basis set)
 
NB est. 0K energy (E-0.5TS)      =  -7856.963239747     eV
 
Calculating total energy with cut-off of  895.000 eV.
------------------------------------------------------------------------ <-- SCF
SCF loop      Energy           Fermi           Energy gain       Timer   <-- SCF
                               energy          per atom          (sec)   <-- SCF
------------------------------------------------------------------------ <-- SCF
Initial  -7.85696195E+003  0.00000000E+000                       893.61  <-- SCF
      1  -7.85696453E+003  9.05591683E-001   3.22393327E-004     942.54  <-- SCF
      2  -7.85696453E+003  9.05591683E-001   5.25907993E-011     980.38  <-- SCF
      3  -7.85696453E+003  9.05591330E-001   3.60014957E-010    1017.91  <-- SCF
      4  -7.85696453E+003  9.05591143E-001   2.82288849E-011    1055.79  <-- SCF
------------------------------------------------------------------------ <-- SCF
 
Final energy, E             =  -7856.961959859     eV
Final free energy (E-TS)    =  -7856.964532563     eV
(energies not corrected for finite basis set)
 
NB est. 0K energy (E-0.5TS)      =  -7856.963246211     eV
 
Calculating total energy with cut-off of  900.000 eV.
------------------------------------------------------------------------ <-- SCF
SCF loop      Energy           Fermi           Energy gain       Timer   <-- SCF
                               energy          per atom          (sec)   <-- SCF
------------------------------------------------------------------------ <-- SCF
Initial  -7.85696196E+003  0.00000000E+000                      1074.94  <-- SCF
      1  -7.85696454E+003  9.05591102E-001   3.22201862E-004    1124.20  <-- SCF
      2  -7.85696454E+003  9.05591102E-001   1.43077910E-011    1162.00  <-- SCF
      3  -7.85696454E+003  9.05591517E-001   2.53286570E-010    1199.91  <-- SCF
      4  -7.85696454E+003  9.05590934E-001   3.36426436E-011    1237.63  <-- SCF
------------------------------------------------------------------------ <-- SCF
 
Final energy, E             =  -7856.961964796     eV
Final free energy (E-TS)    =  -7856.964537494     eV
(energies not corrected for finite basis set)
 
NB est. 0K energy (E-0.5TS)      =  -7856.963251145     eV
 
 For future reference: finite basis dEtot/dlog(Ecut) =      -0.001024eV
 Total energy corrected for finite basis set =   -7856.964538 eV
 
 ************************** Forces **************************
 *                                                          *
 *               Cartesian components (eV/A)                *
 * -------------------------------------------------------- *
 *                         x            y            z      *
 *                                                          *
 * P               1     -0.00000     -0.00000      0.00000 *
 * P               2      0.00000     -0.00000     -0.00000 *
 * P               3     -0.00000      0.00000     -0.00000 *
 * P               4      0.00000      0.00000      0.00000 *
 * In              1      0.00000      0.00000      0.00000 *
 * In              2     -0.00000      0.00000     -0.00000 *
 * In              3      0.00000     -0.00000     -0.00000 *
 * In              4     -0.00000     -0.00000      0.00000 *
 *                                                          *
 ************************************************************
 
 ***************** Stress Tensor *****************
 *                                               *
 *          Cartesian components (GPa)           *
 * --------------------------------------------- *
 *             x             y             z     *
 *                                               *
 *  x      9.963022     -0.000000     -0.000000  *
 *  y     -0.000000      9.963022     -0.000000  *
 *  z     -0.000000     -0.000000      9.963022  *
 *                                               *
 *  Pressure:   -9.9630                          *
 *                                               *
 *************************************************
 
 Pseudo atomic calculation performed for P 3s2 3p3
 
 Converged in 23 iterations to a total energy of -208.0292 eV
 
 Pseudo atomic calculation performed for In 4d10 5s2 5p1
 
 Converged in 42 iterations to a total energy of -1747.4504 eV
Charge spilling parameter for spin component 1 = 0.13%
 
            Orbital Populations       
     Ion    Atom   Orbital             Charge
  -------------------------------------------
      P     1      S                    1.824
      P     1      Px                   1.251
      P     1      Py                   1.251
      P     1      Pz                   1.251
      P     2      S                    1.824
      P     2      Px                   1.251
      P     2      Py                   1.251
      P     2      Pz                   1.251
      P     3      S                    1.824
      P     3      Px                   1.251
      P     3      Py                   1.251
      P     3      Pz                   1.251
      P     4      S                    1.824
      P     4      Px                   1.251
      P     4      Py                   1.251
      P     4      Pz                   1.251
     In     1      Dzz                  2.000
     In     1      Dzy                  1.999
     In     1      Dzx                  1.999
     In     1      Dxx-yy               2.000
     In     1      Dxy                  1.999
     In     1      S                    1.409
     In     1      Px                   0.430
     In     1      Py                   0.430
     In     1      Pz                   0.430
     In     1      S                   -0.270
     In     2      Dzz                  2.000
     In     2      Dzy                  1.999
     In     2      Dzx                  1.999
     In     2      Dxx-yy               2.000
     In     2      Dxy                  1.999
     In     2      S                    1.409
     In     2      Px                   0.430
     In     2      Py                   0.430
     In     2      Pz                   0.430
     In     2      S                   -0.270
     In     3      Dzz                  2.000
     In     3      Dzy                  1.999
     In     3      Dzx                  1.999
     In     3      Dxx-yy               2.000
     In     3      Dxy                  1.999
     In     3      S                    1.409
     In     3      Px                   0.430
     In     3      Py                   0.430
     In     3      Pz                   0.430
     In     3      S                   -0.270
     In     4      Dzz                  2.000
     In     4      Dzy                  1.999
     In     4      Dzx                  1.999
     In     4      Dxx-yy               2.000
     In     4      Dxy                  1.999
     In     4      S                    1.409
     In     4      Px                   0.430
     In     4      Py                   0.430
     In     4      Pz                   0.430
     In     4      S                   -0.270
  -------------------------------------------
                           Total:      72.000
  -------------------------------------------
 
     Atomic Populations (Mulliken)
     -----------------------------
Species          Ion     s      p      d      f     Total  Charge (e)
=====================================================================
  P               1     1.82   3.75   0.00   0.00   5.58    -0.58
  P               2     1.82   3.75   0.00   0.00   5.58    -0.58
  P               3     1.82   3.75   0.00   0.00   5.58    -0.58
  P               4     1.82   3.75   0.00   0.00   5.58    -0.58
  In              1     1.14   1.29  10.00   0.00  12.42     0.58
  In              2     1.14   1.29  10.00   0.00  12.42     0.58
  In              3     1.14   1.29  10.00   0.00  12.42     0.58
  In              4     1.14   1.29  10.00   0.00  12.42     0.58
=====================================================================
 
                 Bond                   Population      Length (A)
======================================================================
               P 4 -- In 4                   0.48        2.82159
               P 4 -- In 3                   0.48        2.82159
               P 4 -- In 2                   0.48        2.82159
               P 1 -- In 3                   0.48        2.82159
               P 1 -- In 2                   0.48        2.82159
               P 3 -- In 4                   0.48        2.82159
               P 3 -- In 3                   0.48        2.82159
               P 2 -- In 4                   0.48        2.82159
               P 2 -- In 2                   0.48        2.82159
               P 4 -- In 1                   0.48        2.82159
               P 3 -- In 2                   0.48        2.82159
               P 3 -- In 1                   0.48        2.82159
               P 2 -- In 3                   0.48        2.82159
               P 2 -- In 1                   0.48        2.82159
               P 1 -- In 4                   0.48        2.82159
               P 1 -- In 1                   0.48        2.82159
======================================================================
 
 
 A BibTeX formatted list of references used in this run has been written to 
 ZB_EOS_1.1042.bib
 
Initialisation time =     16.86 s
Calculation time    =   1426.97 s
Finalisation time   =      0.41 s
Total time          =   1444.24 s
Peak Memory Use     = 2454500 kB
  
Overall parallel efficiency rating: Excellent (98%)                             
  
Data was distributed by:-
k-point (32-way); efficiency rating: Excellent (98%)                            
