 +-------------------------------------------------+
 |                                                 |
 |      CCC   AA    SSS  TTTTT  EEEEE  PPPP        |
 |     C     A  A  S       T    E      P   P       |
 |     C     AAAA   SS     T    EEE    PPPP        |
 |     C     A  A     S    T    E      P           |
 |      CCC  A  A  SSS     T    EEEEE  P           |
 |                                                 |
 +-------------------------------------------------+
 |                                                 |
 | Welcome to Academic Release CASTEP version 24.1 |
 | Ab Initio Total Energy Program                  |
 |                                                 |
 | Authors:                                        |
 | M. Segall, M. Probert, C. Pickard, P. Hasnip,   |
 | S. Clark, K. Refson, J. R. Yates,               |
 | A. Bartok-Partay, M. Payne                      |
 |                                                 |
 | Contributors:                                   |
 | P. Lindan, P. Haynes, J. White, V. Milman,      |
 | N. Govind, M. Gibson, P. Tulip, V. Cocula,      |
 | B. Montanari, D. Quigley, M. Glover,            |
 | L. Bernasconi, A. Perlov, M. Plummer,           |
 | E. McNellis, J. Meyer, J. Gale, D. Jochym       |
 | J. Aarons, B. Walker, R. Gillen, D. Jones       |
 | T. Green, I. J. Bush, C. J. Armstrong,          |
 | E. J. Higgins, E. L. Brown, M. S. McFly,        |
 | J. Wilkins, B-C. Shih, P. J. P. Byrne,          |
 | R. J. Maurer, J. C. Womack, J. Dziedzic,        |
 | L. LeBlanc, T. K. Stenczel, J. Kermode,         |
 | S. Sturniolo, B. Shi, B. Durham, M. Evans,      |
 | M. J. Smith, A. Tamerus, Z. Hawkhead,           |
 | V. Ravindran, T. Hollins, S. A. Joyce,          |
 | R. T. Strong, A. M. Reilly, S. J. Donaldson     |
 |                                                 |
 | Copyright (c) 2000 - 2023                       |
 |                                                 |
 |     Distributed under license from Cambridge    |
 |     Enterprise for academic use only.           |
 |                                                 |
 | Please cite                                     |
 |                                                 |
 |     "First principles methods using CASTEP"     |
 |                                                 |
 |         Zeitschrift fuer Kristallographie       |
 |           220(5-6) pp. 567-570 (2005)           |
 |                                                 |
 | S. J. Clark, M. D. Segall, C. J. Pickard,       |
 | P. J. Hasnip, M. J. Probert, K. Refson,         |
 | M. C. Payne                                     |
 |                                                 |
 |       in all publications arising from          |
 |              your use of CASTEP                 |
 |                                                 |
 +-------------------------------------------------+
 |                                                 |
 |              http://www.castep.org              |
 |                                                 |
 +-------------------------------------------------+



 Compiled for  GNU 11.2.0 on 04-04-2024 18:39:17
 from code version 6355fd106 Castep241_branch Thu Mar 7 17:56:19 2024 +0000
 Compiler: GNU Fortran 11.2.0; Optimisation: FAST
 Comms   : MPI VERSION : CRAY MPICH version 8.1.23.14 (ANL base 3.4a2)
 MATHLIBS: default (LAPACK version 3.10.1)
 FFT Lib : fftw3 version commercial-fftw-3.3.10-sse2-avx-avx2-avx2_128
 Fundamental constants values: CODATA 2018

 Run started: Tue, 29 Apr 2025 16:21:21 +0100

 Atomic calculation performed for P: 1s2 2s2 2p6 3s2 3p3

 Converged in 47 iterations to an ae energy of -9309.074 eV

   ============================================================                
   | Pseudopotential Report - Date of generation 29-04-2025   |                
   ------------------------------------------------------------                
   | Element: P Ionic charge:  5.00 Level of theory: RSCAN    |                
   | Atomic Solver: Koelling-Harmon                           |                
   |                                                          |                
   |               Reference Electronic Structure             |                
   |         Orbital         Occupation         Energy        |                
   |            3s              2.000           -0.535        |                
   |            3p              3.000           -0.209        |                
   |                                                          |                
   |                 Pseudopotential Definition               |                
   |        Beta     l      e      Rc     scheme   norm       |                
   |          1      0   -0.535   1.807     qc      0         |                
   |          2      0    0.250   1.807     qc      0         |                
   |          3      1   -0.209   1.807     qc      0         |                
   |          4      1    0.250   1.807     qc      0         |                
   |          5      2    0.000   1.807     qc      0         |                
   |          6      2    0.250   1.807     qc      0         |                
   |         loc     3    0.000   1.807     pn      0         |                
   |                                                          |                
   | Augmentation charge Rinner = 1.263                       |                
   | Partial core correction Rc = 1.263                       |                
   ------------------------------------------------------------                
   | "3|1.8|4|4|5|30:31:32"                                   |                
   ------------------------------------------------------------                
   |      Author: Chris J. Pickard, Cambridge University      |                
   ============================================================                
 Warning: otfg_output_psp cannot write out meta-GGA pseudopotentials presently.

 Atomic calculation performed for In:
 1s2 2s2 2p6 3s2 3p6 3d10 4s2 4p6 4d10 5s2 5p1

 Converged in 84 iterations to an ae energy of -160093.328 eV

   ============================================================                
   | Pseudopotential Report - Date of generation 29-04-2025   |                
   ------------------------------------------------------------                
   | Element: In Ionic charge: 13.00 Level of theory: RSCAN   |                
   | Atomic Solver: Koelling-Harmon                           |                
   |                                                          |                
   |               Reference Electronic Structure             |                
   |         Orbital         Occupation         Energy        |                
   |            4d             10.000           -0.711        |                
   |            5s              2.000           -0.313        |                
   |            5p              1.000           -0.095        |                
   |                                                          |                
   |                 Pseudopotential Definition               |                
   |        Beta     l      e      Rc     scheme   norm       |                
   |          1      0   -0.313   2.501     qc      0         |                
   |          2      0    0.250   2.501     qc      0         |                
   |          3      1   -0.095   2.501     qc      0         |                
   |          4      1    0.250   2.501     qc      0         |                
   |          5      2   -0.711   2.207     qc      0         |                
   |          6      2    0.250   2.207     qc      0         |                
   |         loc     3    0.000   2.501     pn      0         |                
   |                                                          |                
   | Augmentation charge Rinner = 1.504                       |                
   | Partial core correction Rc = 1.504                       |                
   ------------------------------------------------------------                
   | "3|2.5|2.5|1.5|7|8|9|50:51:42U2.2U2.2"                   |                
   ------------------------------------------------------------                
   |      Author: Chris J. Pickard, Cambridge University      |                
   ============================================================                
 Warning: otfg_output_psp cannot write out meta-GGA pseudopotentials presently.

 Pseudo atomic calculation performed for P 3s2 3p3

 Converged in 23 iterations to a total energy of -208.0292 eV

 Pseudo atomic calculation performed for In 4d10 5s2 5p1

 Converged in 42 iterations to a total energy of -1747.4501 eV
 Calculation parallelised over 108 processes.
 Data is distributed by G-vector(3-way) and k-point(36-way)
 Each process may use up to 16 threads.

 ************************************ Title ************************************
 

 ***************************** General Parameters ******************************
  
 output verbosity                               : normal  (1)
 write checkpoint data to                       : P_Vacancy_Migration_0->3_Singlepoints_4.check
 type of calculation                            : single point energy
 stress calculation                             : off
 density difference calculation                 : off
 electron localisation func (ELF) calculation   : off
 Hirshfeld analysis                             : on
 polarisation (Berry phase) analysis            : off
 molecular orbital projected DOS                : off
 deltaSCF calculation                           : off
 unlimited duration calculation
 timing information                             : on
 memory usage estimate                          : on
 write extra output files                       : on
 write final potential to formatted file        : off
 write final density to formatted file          : off
 write BibTeX reference list                    : on
 write OTFG pseudopotential files               : on
 write electrostatic potential file             : on
 write bands file                               : on
 checkpoint writing                             : off
  
 output         length unit                     : A
 output           mass unit                     : amu
 output           time unit                     : ps
 output         charge unit                     : e
 output           spin unit                     : hbar/2
 output         energy unit                     : eV
 output          force unit                     : eV/A
 output       velocity unit                     : A/ps
 output       pressure unit                     : GPa
 output     inv_length unit                     : 1/A
 output      frequency unit                     : cm-1
 output force constant unit                     : eV/A**2
 output         volume unit                     : A**3
 output   IR intensity unit                     : (D/A)**2/amu
 output         dipole unit                     : D
 output         efield unit                     : eV/A/e
 output        entropy unit                     : J/mol/K
 output    efield chi2 unit                     : pm/V
  
 wavefunctions paging                           : none
 random number generator seed                   :  162121694
 data distribution                              : optimal for this architecture
 optimization strategy                          : balance speed and memory

 *********************** Exchange-Correlation Parameters ***********************
  
 using functional                               : RSCAN
 relativistic treatment                         : Koelling-Harmon
 DFT+D: Semi-empirical dispersion correction    : off

 ************************* Pseudopotential Parameters **************************
  
 pseudopotential representation                 : reciprocal space
 <beta|phi> representation                      : reciprocal space
 spin-orbit coupling                            : off

 **************************** Basis Set Parameters *****************************
  
 plane wave basis set cut-off                   :   900.0000   eV
 size of standard grid                          :     2.0000
 size of   fine   gmax                          :    30.7390   1/A
 finite basis set correction                    : none

 **************************** Electronic Parameters ****************************
  
 number of  electrons                           :  571.0    
 net charge of system                           :  0.000    
 net spin   of system                           :  1.000    
 number of  up  spins                           :  286.0    
 number of down spins                           :  285.0    
 treating system as spin-polarized
 number of bands                                :        343

 ********************* Electronic Minimization Parameters **********************
  
 Method: Treating system as metallic with density mixing treatment of electrons,
         and number of  SD  steps               :          1
         and number of  CG  steps               :          4
  
 total energy / atom convergence tol.           : 0.1000E-07   eV
 eigen-energy convergence tolerance             : 0.2203E-08   eV
 max force / atom convergence tol.              : ignored
 convergence tolerance window                   :          3   cycles
 max. number of SCF cycles                      :        100
 number of fixed-spin iterations                :         10
 smearing scheme                                : Gaussian
 smearing width                                 : 0.2000       eV
 Fermi energy convergence tolerance             : 0.2721E-13   eV
 periodic dipole correction                     : NONE

 ************************** Density Mixing Parameters **************************
  
 density-mixing scheme                          : Pulay
 max. length of mixing history                  :         20
 charge density mixing amplitude                : 0.5000    
   spin density mixing amplitude                :  2.000    
 cut-off energy for mixing                      :  900.0       eV

 *********************** Population Analysis Parameters ************************
  
 Population analysis with cutoff                :  3.000       A
 Population analysis output                     : summary and pdos components

 *******************************************************************************
  

                           -------------------------------
                                      Unit Cell
                           -------------------------------
        Real Lattice(A)                      Reciprocal Lattice(1/A)
    11.8016820    -0.0000080    -0.0000080        0.532397442   0.000000361   0.000000361
    -0.0000080    11.8016820    -0.0000080        0.000000361   0.532397442   0.000000361
    -0.0000080    -0.0000080    11.8016820        0.000000361   0.000000361   0.532397442

                       Lattice parameters(A)       Cell Angles
                    a =     11.801682          alpha =   90.000078
                    b =     11.801682          beta  =   90.000078
                    c =     11.801682          gamma =   90.000078

                       Current cell volume =          1643.734705       A**3
                                   density =             2.819410   AMU/A**3
                                           =             4.681741     g/cm^3

                           -------------------------------
                                     Cell Contents
                           -------------------------------
                         Total number of ions in cell =   63
                      Total number of species in cell =    2
                        Max number of any one species =   32

            xxxxxxxxxxxxxxxxxxxxxxxxxxxxxxxxxxxxxxxxxxxxxxxxxxxxxxxxxxxx
            x  Element    Atom        Fractional coordinates of atoms  x
            x            Number           u          v          w      x
            x----------------------------------------------------------x
            x  P            1         0.274334   0.274334   0.330460   x 
            x  P            2         0.379209   0.118768   0.107039   x 
            x  P            3         0.118768   0.379209   0.107039   x 
            x  P            4         0.121934   0.121934   0.874008   x 
            x  P            5         0.380098   0.118898   0.638501   x 
            x  P            6         0.118898   0.380098   0.638501   x 
            x  P            7         0.377920   0.377920   0.873338   x 
            x  P            8         0.126822   0.620103   0.375564   x 
            x  P            9         0.372969   0.617232   0.136432   x 
            x  P           10         0.125022   0.879507   0.134288   x 
            x  P           11         0.372641   0.880533   0.375443   x 
            x  P           12         0.125764   0.633207   0.875462   x 
            x  P           13         0.375139   0.621366   0.618576   x 
            x  P           14         0.123684   0.878565   0.618132   x 
            x  P           15         0.373103   0.865334   0.875374   x 
            x  P           16         0.620103   0.126822   0.375564   x 
            x  P           17         0.879507   0.125022   0.134288   x 
            x  P           18         0.617232   0.372969   0.136432   x 
            x  P           19         0.880533   0.372641   0.375443   x 
            x  P           20         0.633207   0.125764   0.875462   x 
            x  P           21         0.878565   0.123684   0.618132   x 
            x  P           22         0.621366   0.375139   0.618576   x 
            x  P           23         0.865334   0.373103   0.875374   x 
            x  P           24         0.625537   0.625537   0.375548   x 
            x  P           25         0.874938   0.623706   0.123690   x 
            x  P           26         0.623706   0.874938   0.123690   x 
            x  P           27         0.874121   0.874121   0.375363   x 
            x  P           28         0.623664   0.623664   0.876866   x 
            x  P           29         0.874647   0.624874   0.627885   x 
            x  P           30         0.624874   0.874647   0.627885   x 
            x  P           31         0.875825   0.875825   0.876509   x 
            x  In           1        -0.000532  -0.000532   0.004776   x 
            x  In           2         0.254769   0.013365   0.248888   x 
            x  In           3         0.013365   0.254769   0.248888   x 
            x  In           4         0.250057   0.250057  -0.007701   x 
            x  In           5         0.009396   0.009396   0.482368   x 
            x  In           6         0.246887  -0.007652   0.754272   x 
            x  In           7        -0.007652   0.246887   0.754272   x 
            x  In           8         0.253870   0.253870   0.536131   x 
            x  In           9        -0.005813   0.504308  -0.012252   x 
            x  In          10         0.242214   0.483182   0.252268   x 
            x  In          11        -0.000839   0.747384   0.251815   x 
            x  In          12         0.249702   0.748708   0.012269   x 
            x  In          13        -0.000422   0.500555   0.502446   x 
            x  In          14         0.251730   0.506836   0.754108   x 
            x  In          15         0.000311   0.755100   0.747298   x 
            x  In          16         0.249870   0.750309   0.499063   x 
            x  In          17         0.504308  -0.005813  -0.012252   x 
            x  In          18         0.747384  -0.000839   0.251815   x 
            x  In          19         0.483182   0.242214   0.252268   x 
            x  In          20         0.748708   0.249702   0.012269   x 
            x  In          21         0.500555  -0.000422   0.502446   x 
            x  In          22         0.755100   0.000311   0.747298   x 
            x  In          23         0.506836   0.251730   0.754108   x 
            x  In          24         0.750309   0.249870   0.499063   x 
            x  In          25         0.499948   0.499948   0.005026   x 
            x  In          26         0.751528   0.499419   0.252206   x 
            x  In          27         0.499419   0.751528   0.252206   x 
            x  In          28         0.749794   0.749794   0.000135   x 
            x  In          29         0.492435   0.492435   0.486177   x 
            x  In          30         0.744562   0.499413   0.747585   x 
            x  In          31         0.499413   0.744562   0.747585   x 
            x  In          32         0.750065   0.750065   0.503296   x 
            xxxxxxxxxxxxxxxxxxxxxxxxxxxxxxxxxxxxxxxxxxxxxxxxxxxxxxxxxxxx


                         No user defined ionic velocities

                           -------------------------------
                                   Details of Species
                           -------------------------------

                               Mass of species in AMU
                                    P   30.9737600
                                    In  114.8180000

                          Electric Quadrupole Moment (Barn)
                                    P    1.0000000 No Isotope Defined
                                    In    0.7700000 Isotope115

                          Files used for pseudopotentials:
                                    P 3|1.8|4|4|5|30:31:32
                                    In 3|2.5|2.5|1.5|7|8|9|50:51:42U2.2U2.2

                           -------------------------------
                              k-Points For BZ Sampling
                           -------------------------------
                       MP grid size for SCF calculation is  4  4  4
                            with an offset of   0.125  0.125  0.125
                       Number of kpoints used =            36

                           -------------------------------
                               Symmetry and Constraints
                           -------------------------------

                      Maximum deviation from symmetry =  0.00000         ANG

                      Number of symmetry operations   =           1
                      Number of ionic constraints     =           3
                      Point group of crystal =     1: C1, 1, 1
                      Space group of crystal =     8: Cm, C -2y

             Set iprint > 1 for details on symmetry rotations/translations

                         Centre of mass is constrained
             Set iprint > 1 for details of linear ionic constraints

                         Number of cell constraints= 0
                         Cell constraints are:  1 2 3 4 5 6

                         External pressure/stress (GPa)
                          0.00000   0.00000   0.00000
                                    0.00000   0.00000
                                              0.00000
 
+---------------- MEMORY AND SCRATCH DISK ESTIMATES PER PROCESS --------------+
|                                                     Memory          Disk    |
| Baseline code, static data and system overhead      368.0 MB         0.0 MB |
| BLAS internal memory storage                          0.0 MB         0.0 MB |
| Model and support data                             4302.1 MB         0.0 MB |
| Electronic energy minimisation requirements        1320.9 MB         0.0 MB |
| Force calculation requirements                      127.4 MB         0.0 MB |
|                                               ----------------------------- |
| Approx. total storage required per process         5991.0 MB         0.0 MB |
|                                                                             |
| Requirements will fluctuate during execution and may exceed these estimates |
+-----------------------------------------------------------------------------+
Calculating approximate eigenstates for fixed initial Hamiltonian
Cut-off for approx. calculation is   89.988 eV
Improving approx. states at cut-off of  450.000 eV
Resetting cut-off to  900.000 eV
Calculating total energy with cut-off of  900.000 eV.
------------------------------------------------------------------------ <-- SCF
SCF loop      Energy           Fermi           Energy gain       Timer   <-- SCF
                               energy          per atom          (sec)   <-- SCF
------------------------------------------------------------------------ <-- SCF
Initial  -6.28278742E+004  0.00000000E+000                       428.36  <-- SCF
      1  -6.25842752E+004  3.19134705E+000  -3.86664998E+000     885.44  <-- SCF
      2  -6.25845415E+004  3.19088820E+000   4.22720157E-003    1188.47  <-- SCF
      3  -6.26517011E+004  3.27490043E+000   1.06602553E+000    1534.74  <-- SCF
      4  -6.26640260E+004  3.30912813E+000   1.95633639E-001    2025.12  <-- SCF
      5  -6.26716143E+004  3.39174061E+000   1.20448902E-001    2374.97  <-- SCF
      6  -6.26604858E+004  3.57948136E+000  -1.76643417E-001    2717.94  <-- SCF
      7  -6.26593517E+004  3.63804905E+000  -1.80013791E-002    3071.33  <-- SCF
      8  -6.26590509E+004  3.65794446E+000  -4.77533701E-003    3437.95  <-- SCF
      9  -6.26598334E+004  3.65799737E+000   1.24205994E-002    3791.08  <-- SCF
     10  -6.26603297E+004  3.68728742E+000   7.87817224E-003    4135.11  <-- SCF
     11  -6.26603857E+004  3.68246109E+000   8.89286182E-004    4497.29  <-- SCF
     12  -6.26604040E+004  3.68020810E+000   2.90543634E-004    4848.80  <-- SCF
     13  -6.26604102E+004  3.67882869E+000   9.79582214E-005    5200.62  <-- SCF
     14  -6.26604118E+004  3.67849386E+000   2.50771746E-005    5559.90  <-- SCF
     15  -6.26604120E+004  3.67849101E+000   3.71739545E-006    5895.13  <-- SCF
     16  -6.26604122E+004  3.67842427E+000   2.88100591E-006    6245.55  <-- SCF
     17  -6.26604122E+004  3.67847515E+000   6.18414182E-007    6578.95  <-- SCF
     18  -6.26604122E+004  3.67861109E+000   3.39016499E-007    6881.13  <-- SCF
     19  -6.26604122E+004  3.67868222E+000   1.46056878E-007    7184.31  <-- SCF
     20  -6.26604123E+004  3.67870796E+000   3.92324419E-008    7445.76  <-- SCF
     21  -6.26604123E+004  3.67869391E+000   1.59915314E-008    7702.46  <-- SCF
     22  -6.26604123E+004  3.67868014E+000   2.47800384E-009    7941.69  <-- SCF
     23  -6.26604123E+004  3.67866942E+000   6.74890710E-010    8178.98  <-- SCF
------------------------------------------------------------------------ <-- SCF
 
Integrated Spin Density     =    0.630182     hbar/2
Integrated |Spin Density|   =    0.849555     hbar/2
 
Final energy, E             =  -62660.34108110     eV
Final free energy (E-TS)    =  -62660.41225179     eV
(energies not corrected for finite basis set)
 
NB est. 0K energy (E-0.5TS)      =  -62660.37666644     eV
 

 ************************** Forces **************************
 *                                                          *
 *               Cartesian components (eV/A)                *
 * -------------------------------------------------------- *
 *                         x            y            z      *
 *                                                          *
 * P               1      0.33729      0.33729     -0.32555 *
 * P               2     -0.10264      0.12189      0.05985 *
 * P               3      0.12189     -0.10264      0.05985 *
 * P               4     -0.00075     -0.00075      0.05287 *
 * P               5     -0.07248     -0.03698      0.00992 *
 * P               6     -0.03698     -0.07247      0.00992 *
 * P               7     -0.01305     -0.01305      0.07673 *
 * P               8     -0.05070      0.07640     -0.00964 *
 * P               9     -0.03965      0.04918     -0.04563 *
 * P              10      0.02523     -0.07687     -0.09925 *
 * P              11     -0.00468      0.00184      0.02338 *
 * P              12     -0.02255     -0.05771      0.03595 *
 * P              13      0.05690      0.08836      0.08996 *
 * P              14     -0.07988     -0.07204      0.09103 *
 * P              15      0.00660     -0.00251      0.03443 *
 * P              16      0.07640     -0.05071     -0.00964 *
 * P              17     -0.07687      0.02523     -0.09925 *
 * P              18      0.04918     -0.03965     -0.04563 *
 * P              19      0.00184     -0.00467      0.02338 *
 * P              20     -0.05771     -0.02255      0.03595 *
 * P              21     -0.07204     -0.07988      0.09103 *
 * P              22      0.08836      0.05690      0.08996 *
 * P              23     -0.00250      0.00661      0.03443 *
 * P              24      0.00450      0.00450      0.08021 *
 * P              25     -0.01879     -0.00548     -0.01829 *
 * P              26     -0.00548     -0.01878     -0.01829 *
 * P              27     -0.04419     -0.04419      0.08090 *
 * P              28     -0.01476     -0.01476      0.00472 *
 * P              29     -0.01920     -0.01593      0.00085 *
 * P              30     -0.01593     -0.01921      0.00086 *
 * P              31     -0.00648     -0.00648      0.01170 *
 * In              1      0.00865      0.00865     -0.04848 *
 * In              2     -0.28832      0.01256      0.10939 *
 * In              3      0.01256     -0.28832      0.10939 *
 * In              4     -0.02656     -0.02656      0.01351 *
 * In              5      0.32597      0.32597     -0.30701 *
 * In              6     -0.01977     -0.01969     -0.00219 *
 * In              7     -0.01970     -0.01978     -0.00219 *
 * In              8      0.09615      0.09615     -0.03781 *
 * In              9     -0.08233      0.00856      0.00697 *
 * In             10      0.06188     -0.02513      0.10673 *
 * In             11      0.01357      0.00246      0.03591 *
 * In             12      0.02767     -0.01211     -0.02167 *
 * In             13      0.02243      0.02530     -0.02183 *
 * In             14      0.03042      0.02706      0.01249 *
 * In             15      0.06940      0.02868     -0.03188 *
 * In             16     -0.04904     -0.00021     -0.01796 *
 * In             17      0.00857     -0.08232      0.00697 *
 * In             18      0.00246      0.01357      0.03591 *
 * In             19     -0.02513      0.06188      0.10673 *
 * In             20     -0.01212      0.02767     -0.02167 *
 * In             21      0.02530      0.02244     -0.02184 *
 * In             22      0.02869      0.06940     -0.03188 *
 * In             23      0.02706      0.03043      0.01249 *
 * In             24     -0.00021     -0.04904     -0.01796 *
 * In             25     -0.01068     -0.01068      0.00797 *
 * In             26     -0.01415     -0.01523     -0.08240 *
 * In             27     -0.01523     -0.01415     -0.08240 *
 * In             28      0.00285      0.00285      0.03903 *
 * In             29     -0.15788     -0.15788     -0.04725 *
 * In             30     -0.01192     -0.06804     -0.01606 *
 * In             31     -0.06803     -0.01192     -0.01606 *
 * In             32      0.02656      0.02656     -0.10166 *
 *                                                          *
 ************************************************************

 Pseudo atomic calculation performed for P 3s2 3p3

 Converged in 23 iterations to a total energy of -208.0292 eV

 Pseudo atomic calculation performed for In 4d10 5s2 5p1

 Converged in 42 iterations to a total energy of -1747.4501 eV
Charge spilling parameter for spin component 1 = 0.17%
Charge spilling parameter for spin component 2 = 0.17%

                   Orbital Populations                  
  ---------------------------------------------------------------
     Ion    Atom   Orbital              Up        Down      Spin
  ---------------------------------------------------------------
      P     1      S                    0.903     0.903    -0.001
      P     1      Px                   0.645     0.630     0.015
      P     1      Py                   0.645     0.630     0.015
      P     1      Pz                   0.623     0.625    -0.001
      P     2      S                    0.871     0.870     0.001
      P     2      Px                   0.651     0.642     0.009
      P     2      Py                   0.659     0.653     0.007
      P     2      Pz                   0.651     0.649     0.001
      P     3      S                    0.871     0.870     0.001
      P     3      Px                   0.659     0.653     0.007
      P     3      Py                   0.651     0.642     0.009
      P     3      Pz                   0.651     0.649     0.001
      P     4      S                    0.867     0.867     0.000
      P     4      Px                   0.655     0.655     0.000
      P     4      Py                   0.655     0.655     0.000
      P     4      Pz                   0.659     0.659     0.000
      P     5      S                    0.868     0.868    -0.000
      P     5      Px                   0.651     0.652    -0.001
      P     5      Py                   0.651     0.652    -0.001
      P     5      Pz                   0.667     0.668    -0.000
      P     6      S                    0.868     0.868    -0.000
      P     6      Px                   0.651     0.652    -0.001
      P     6      Py                   0.651     0.652    -0.001
      P     6      Pz                   0.667     0.668    -0.000
      P     7      S                    0.867     0.867     0.000
      P     7      Px                   0.655     0.655    -0.000
      P     7      Py                   0.655     0.655    -0.000
      P     7      Pz                   0.659     0.659    -0.000
      P     8      S                    0.870     0.870    -0.000
      P     8      Px                   0.654     0.655    -0.000
      P     8      Py                   0.651     0.651    -0.000
      P     8      Pz                   0.658     0.658    -0.000
      P     9      S                    0.873     0.873    -0.000
      P     9      Px                   0.656     0.656     0.000
      P     9      Py                   0.646     0.646    -0.000
      P     9      Pz                   0.654     0.654     0.000
      P    10      S                    0.872     0.872    -0.001
      P    10      Px                   0.658     0.660    -0.001
      P    10      Py                   0.644     0.645    -0.002
      P    10      Pz                   0.653     0.655    -0.002
      P    11      S                    0.872     0.872    -0.000
      P    11      Px                   0.652     0.652    -0.000
      P    11      Py                   0.645     0.646    -0.001
      P    11      Pz                   0.661     0.661    -0.000
      P    12      S                    0.870     0.869     0.000
      P    12      Px                   0.654     0.653     0.001
      P    12      Py                   0.656     0.655     0.001
      P    12      Pz                   0.655     0.654     0.001
      P    13      S                    0.873     0.869     0.004
      P    13      Px                   0.665     0.659     0.006
      P    13      Py                   0.657     0.644     0.012
      P    13      Pz                   0.653     0.640     0.013
      P    14      S                    0.872     0.871     0.002
      P    14      Px                   0.662     0.659     0.003
      P    14      Py                   0.653     0.649     0.004
      P    14      Pz                   0.648     0.643     0.005
      P    15      S                    0.869     0.868     0.001
      P    15      Px                   0.654     0.652     0.002
      P    15      Py                   0.658     0.655     0.004
      P    15      Pz                   0.657     0.653     0.004
      P    16      S                    0.870     0.870    -0.000
      P    16      Px                   0.651     0.651    -0.000
      P    16      Py                   0.654     0.655    -0.000
      P    16      Pz                   0.658     0.658    -0.000
      P    17      S                    0.872     0.872    -0.001
      P    17      Px                   0.644     0.645    -0.002
      P    17      Py                   0.658     0.660    -0.001
      P    17      Pz                   0.653     0.655    -0.002
      P    18      S                    0.873     0.873    -0.000
      P    18      Px                   0.646     0.646    -0.000
      P    18      Py                   0.656     0.656     0.000
      P    18      Pz                   0.654     0.654     0.000
      P    19      S                    0.872     0.872    -0.000
      P    19      Px                   0.645     0.646    -0.001
      P    19      Py                   0.652     0.652    -0.000
      P    19      Pz                   0.661     0.661    -0.000
      P    20      S                    0.870     0.869     0.000
      P    20      Px                   0.656     0.655     0.001
      P    20      Py                   0.654     0.653     0.001
      P    20      Pz                   0.655     0.654     0.001
      P    21      S                    0.872     0.871     0.002
      P    21      Px                   0.653     0.649     0.004
      P    21      Py                   0.662     0.659     0.003
      P    21      Pz                   0.648     0.643     0.005
      P    22      S                    0.873     0.869     0.004
      P    22      Px                   0.657     0.644     0.012
      P    22      Py                   0.665     0.659     0.006
      P    22      Pz                   0.653     0.640     0.013
      P    23      S                    0.869     0.868     0.001
      P    23      Px                   0.658     0.655     0.004
      P    23      Py                   0.654     0.652     0.002
      P    23      Pz                   0.657     0.653     0.004
      P    24      S                    0.875     0.872     0.003
      P    24      Px                   0.650     0.639     0.012
      P    24      Py                   0.650     0.639     0.012
      P    24      Pz                   0.667     0.663     0.004
      P    25      S                    0.868     0.868    -0.000
      P    25      Px                   0.658     0.658    -0.000
      P    25      Py                   0.657     0.658    -0.000
      P    25      Pz                   0.652     0.652     0.000
      P    26      S                    0.868     0.868    -0.000
      P    26      Px                   0.657     0.658    -0.000
      P    26      Py                   0.658     0.658    -0.000
      P    26      Pz                   0.652     0.652     0.000
      P    27      S                    0.872     0.871     0.001
      P    27      Px                   0.649     0.644     0.005
      P    27      Py                   0.649     0.644     0.005
      P    27      Pz                   0.665     0.663     0.002
      P    28      S                    0.868     0.868    -0.000
      P    28      Px                   0.658     0.658    -0.000
      P    28      Py                   0.658     0.658    -0.000
      P    28      Pz                   0.654     0.653     0.001
      P    29      S                    0.868     0.868    -0.000
      P    29      Px                   0.655     0.655     0.000
      P    29      Py                   0.655     0.655    -0.000
      P    29      Pz                   0.659     0.659    -0.000
      P    30      S                    0.868     0.868    -0.000
      P    30      Px                   0.655     0.655    -0.000
      P    30      Py                   0.655     0.655     0.000
      P    30      Pz                   0.659     0.659    -0.000
      P    31      S                    0.868     0.868    -0.000
      P    31      Px                   0.658     0.658    -0.000
      P    31      Py                   0.658     0.658    -0.000
      P    31      Pz                   0.654     0.654     0.000
     In     1      Dzz                  1.000     1.000     0.000
     In     1      Dzy                  0.998     0.998     0.000
     In     1      Dzx                  0.998     0.998     0.000
     In     1      Dxx-yy               1.000     1.000     0.000
     In     1      Dxy                  0.999     0.999    -0.000
     In     1      S                    0.707     0.707     0.001
     In     1      Px                   0.239     0.239     0.000
     In     1      Py                   0.239     0.239     0.000
     In     1      Pz                   0.241     0.241     0.000
     In     1      S                   -0.247    -0.245    -0.002
     In     2      Dzz                  1.000     1.000     0.000
     In     2      Dzy                  0.999     0.999     0.000
     In     2      Dzx                  0.999     0.999     0.000
     In     2      Dxx-yy               1.000     1.000     0.000
     In     2      Dxy                  0.999     0.999     0.000
     In     2      S                    0.707     0.710    -0.004
     In     2      Px                   0.238     0.245    -0.008
     In     2      Py                   0.226     0.223     0.003
     In     2      Pz                   0.235     0.239    -0.005
     In     2      S                   -0.231    -0.232     0.001
     In     3      Dzz                  1.000     1.000     0.000
     In     3      Dzy                  0.999     0.999     0.000
     In     3      Dzx                  0.999     0.999     0.000
     In     3      Dxx-yy               1.000     1.000     0.000
     In     3      Dxy                  0.999     0.999     0.000
     In     3      S                    0.707     0.710    -0.004
     In     3      Px                   0.226     0.223     0.003
     In     3      Py                   0.238     0.245    -0.008
     In     3      Pz                   0.235     0.239    -0.005
     In     3      S                   -0.231    -0.232     0.001
     In     4      Dzz                  1.000     1.000    -0.000
     In     4      Dzy                  0.999     0.999     0.000
     In     4      Dzx                  0.999     0.999     0.000
     In     4      Dxx-yy               1.000     1.000    -0.000
     In     4      Dxy                  0.998     0.998    -0.000
     In     4      S                    0.705     0.705    -0.000
     In     4      Px                   0.244     0.245    -0.000
     In     4      Py                   0.244     0.245    -0.000
     In     4      Pz                   0.228     0.229    -0.000
     In     4      S                   -0.246    -0.244    -0.002
     In     5      Dzz                  1.000     1.000    -0.000
     In     5      Dzy                  0.999     0.999    -0.000
     In     5      Dzx                  0.999     0.999    -0.000
     In     5      Dxx-yy               1.000     1.000    -0.000
     In     5      Dxy                  0.999     0.999    -0.000
     In     5      S                    0.748     0.722     0.026
     In     5      Px                   0.260     0.238     0.023
     In     5      Py                   0.260     0.238     0.023
     In     5      Pz                   0.256     0.244     0.011
     In     5      S                   -0.243    -0.248     0.005
     In     6      Dzz                  1.000     1.000     0.000
     In     6      Dzy                  0.999     0.999     0.000
     In     6      Dzx                  0.998     0.998    -0.000
     In     6      Dxx-yy               1.000     1.000     0.000
     In     6      Dxy                  0.998     0.998     0.000
     In     6      S                    0.709     0.709    -0.000
     In     6      Px                   0.242     0.242     0.000
     In     6      Py                   0.240     0.240    -0.000
     In     6      Pz                   0.237     0.238    -0.001
     In     6      S                   -0.248    -0.251     0.003
     In     7      Dzz                  1.000     1.000     0.000
     In     7      Dzy                  0.998     0.998    -0.000
     In     7      Dzx                  0.999     0.999     0.000
     In     7      Dxx-yy               1.000     1.000     0.000
     In     7      Dxy                  0.998     0.998     0.000
     In     7      S                    0.709     0.709    -0.000
     In     7      Px                   0.240     0.240    -0.000
     In     7      Py                   0.242     0.242     0.000
     In     7      Pz                   0.237     0.238    -0.001
     In     7      S                   -0.248    -0.251     0.003
     In     8      Dzz                  0.998     0.998     0.000
     In     8      Dzy                  0.999     0.999     0.000
     In     8      Dzx                  0.999     0.999     0.000
     In     8      Dxx-yy               1.000     1.000    -0.000
     In     8      Dxy                  0.998     0.998    -0.000
     In     8      S                    0.745     0.746    -0.001
     In     8      Px                   0.225     0.206     0.019
     In     8      Py                   0.225     0.206     0.019
     In     8      Pz                   0.253     0.253     0.000
     In     8      S                   -0.260    -0.255    -0.005
     In     9      Dzz                  0.999     0.999     0.000
     In     9      Dzy                  0.998     0.998     0.000
     In     9      Dzx                  0.998     0.998     0.000
     In     9      Dxx-yy               0.999     0.999     0.000
     In     9      Dxy                  0.998     0.998     0.000
     In     9      S                    0.713     0.712     0.001
     In     9      Px                   0.246     0.245     0.001
     In     9      Py                   0.247     0.246     0.001
     In     9      Pz                   0.239     0.239    -0.000
     In     9      S                   -0.260    -0.260     0.001
     In    10      Dzz                  1.000     1.000     0.000
     In    10      Dzy                  0.999     0.999     0.000
     In    10      Dzx                  0.999     0.999     0.000
     In    10      Dxx-yy               0.999     0.999     0.000
     In    10      Dxy                  0.999     0.999     0.000
     In    10      S                    0.696     0.698    -0.002
     In    10      Px                   0.230     0.234    -0.003
     In    10      Py                   0.242     0.242    -0.000
     In    10      Pz                   0.244     0.247    -0.003
     In    10      S                   -0.226    -0.230     0.004
     In    11      Dzz                  1.000     1.000    -0.000
     In    11      Dzy                  0.999     0.999     0.000
     In    11      Dzx                  0.999     0.999     0.000
     In    11      Dxx-yy               1.000     1.000     0.000
     In    11      Dxy                  0.999     0.999     0.000
     In    11      S                    0.708     0.709    -0.000
     In    11      Px                   0.240     0.241    -0.000
     In    11      Py                   0.240     0.240     0.000
     In    11      Pz                   0.236     0.237    -0.000
     In    11      S                   -0.238    -0.235    -0.003
     In    12      Dzz                  1.000     1.000     0.000
     In    12      Dzy                  0.999     0.999     0.000
     In    12      Dzx                  0.999     0.999    -0.000
     In    12      Dxx-yy               1.000     1.000     0.000
     In    12      Dxy                  0.999     0.999    -0.000
     In    12      S                    0.706     0.707    -0.001
     In    12      Px                   0.237     0.238    -0.001
     In    12      Py                   0.238     0.238     0.000
     In    12      Pz                   0.241     0.241    -0.000
     In    12      S                   -0.253    -0.251    -0.002
     In    13      Dzz                  1.000     1.000    -0.000
     In    13      Dzy                  0.998     0.998     0.000
     In    13      Dzx                  0.998     0.998     0.000
     In    13      Dxx-yy               1.000     1.000    -0.000
     In    13      Dxy                  0.999     0.999     0.000
     In    13      S                    0.711     0.711     0.000
     In    13      Px                   0.239     0.239     0.000
     In    13      Py                   0.240     0.240     0.000
     In    13      Pz                   0.241     0.241    -0.000
     In    13      S                   -0.256    -0.255    -0.001
     In    14      Dzz                  1.000     1.000     0.000
     In    14      Dzy                  0.999     0.999    -0.000
     In    14      Dzx                  0.998     0.998    -0.000
     In    14      Dxx-yy               1.000     1.000     0.000
     In    14      Dxy                  0.998     0.998     0.000
     In    14      S                    0.708     0.708    -0.000
     In    14      Px                   0.243     0.242     0.001
     In    14      Py                   0.240     0.240    -0.000
     In    14      Pz                   0.237     0.239    -0.001
     In    14      S                   -0.253    -0.255     0.002
     In    15      Dzz                  1.000     1.000     0.000
     In    15      Dzy                  0.999     0.999     0.000
     In    15      Dzx                  0.998     0.998     0.000
     In    15      Dxx-yy               1.000     1.000     0.000
     In    15      Dxy                  0.999     0.999     0.000
     In    15      S                    0.712     0.710     0.002
     In    15      Px                   0.244     0.241     0.003
     In    15      Py                   0.238     0.238     0.000
     In    15      Pz                   0.241     0.241     0.000
     In    15      S                   -0.249    -0.249     0.000
     In    16      Dzz                  1.000     1.000     0.000
     In    16      Dzy                  0.999     0.999     0.000
     In    16      Dzx                  0.999     0.999     0.000
     In    16      Dxx-yy               1.000     1.000    -0.000
     In    16      Dxy                  0.998     0.998     0.000
     In    16      S                    0.711     0.712    -0.000
     In    16      Px                   0.238     0.238    -0.001
     In    16      Py                   0.241     0.242    -0.001
     In    16      Pz                   0.239     0.239    -0.001
     In    16      S                   -0.231    -0.235     0.004
     In    17      Dzz                  0.999     0.999     0.000
     In    17      Dzy                  0.998     0.998     0.000
     In    17      Dzx                  0.998     0.998     0.000
     In    17      Dxx-yy               0.999     0.999     0.000
     In    17      Dxy                  0.998     0.998     0.000
     In    17      S                    0.713     0.712     0.001
     In    17      Px                   0.247     0.246     0.001
     In    17      Py                   0.246     0.245     0.001
     In    17      Pz                   0.239     0.239    -0.000
     In    17      S                   -0.260    -0.260     0.001
     In    18      Dzz                  1.000     1.000    -0.000
     In    18      Dzy                  0.999     0.999     0.000
     In    18      Dzx                  0.999     0.999     0.000
     In    18      Dxx-yy               1.000     1.000     0.000
     In    18      Dxy                  0.999     0.999     0.000
     In    18      S                    0.708     0.709    -0.001
     In    18      Px                   0.240     0.240     0.000
     In    18      Py                   0.240     0.241    -0.000
     In    18      Pz                   0.236     0.237    -0.000
     In    18      S                   -0.238    -0.235    -0.003
     In    19      Dzz                  1.000     1.000     0.000
     In    19      Dzy                  0.999     0.999     0.000
     In    19      Dzx                  0.999     0.999     0.000
     In    19      Dxx-yy               0.999     0.999     0.000
     In    19      Dxy                  0.999     0.999     0.000
     In    19      S                    0.696     0.698    -0.002
     In    19      Px                   0.242     0.242    -0.000
     In    19      Py                   0.230     0.234    -0.003
     In    19      Pz                   0.244     0.247    -0.003
     In    19      S                   -0.226    -0.230     0.004
     In    20      Dzz                  1.000     1.000    -0.000
     In    20      Dzy                  0.999     0.999    -0.000
     In    20      Dzx                  0.999     0.999     0.000
     In    20      Dxx-yy               1.000     1.000    -0.000
     In    20      Dxy                  0.999     0.999     0.000
     In    20      S                    0.706     0.707    -0.001
     In    20      Px                   0.238     0.238     0.000
     In    20      Py                   0.237     0.238    -0.001
     In    20      Pz                   0.241     0.241    -0.000
     In    20      S                   -0.253    -0.251    -0.002
     In    21      Dzz                  1.000     1.000    -0.000
     In    21      Dzy                  0.998     0.998     0.000
     In    21      Dzx                  0.998     0.998     0.000
     In    21      Dxx-yy               1.000     1.000    -0.000
     In    21      Dxy                  0.999     0.999     0.000
     In    21      S                    0.711     0.711     0.000
     In    21      Px                   0.240     0.240     0.000
     In    21      Py                   0.239     0.239     0.000
     In    21      Pz                   0.241     0.241    -0.000
     In    21      S                   -0.256    -0.255    -0.001
     In    22      Dzz                  1.000     1.000    -0.000
     In    22      Dzy                  0.998     0.998     0.000
     In    22      Dzx                  0.999     0.999     0.000
     In    22      Dxx-yy               1.000     1.000     0.000
     In    22      Dxy                  0.999     0.999     0.000
     In    22      S                    0.712     0.710     0.002
     In    22      Px                   0.238     0.238     0.000
     In    22      Py                   0.244     0.241     0.003
     In    22      Pz                   0.241     0.241     0.000
     In    22      S                   -0.249    -0.249     0.000
     In    23      Dzz                  1.000     1.000     0.000
     In    23      Dzy                  0.998     0.998    -0.000
     In    23      Dzx                  0.999     0.999     0.000
     In    23      Dxx-yy               1.000     1.000     0.000
     In    23      Dxy                  0.998     0.998     0.000
     In    23      S                    0.708     0.708    -0.000
     In    23      Px                   0.240     0.240    -0.000
     In    23      Py                   0.243     0.242     0.001
     In    23      Pz                   0.237     0.239    -0.001
     In    23      S                   -0.253    -0.255     0.002
     In    24      Dzz                  1.000     1.000     0.000
     In    24      Dzy                  0.999     0.999     0.000
     In    24      Dzx                  0.999     0.999     0.000
     In    24      Dxx-yy               1.000     1.000     0.000
     In    24      Dxy                  0.998     0.998     0.000
     In    24      S                    0.711     0.712    -0.000
     In    24      Px                   0.241     0.242    -0.001
     In    24      Py                   0.238     0.238    -0.001
     In    24      Pz                   0.239     0.239    -0.001
     In    24      S                   -0.231    -0.235     0.004
     In    25      Dzz                  1.000     1.000    -0.000
     In    25      Dzy                  0.998     0.998     0.000
     In    25      Dzx                  0.998     0.998     0.000
     In    25      Dxx-yy               1.000     1.000    -0.000
     In    25      Dxy                  0.999     0.999     0.000
     In    25      S                    0.707     0.706     0.001
     In    25      Px                   0.239     0.239     0.000
     In    25      Py                   0.239     0.239     0.000
     In    25      Pz                   0.243     0.243    -0.000
     In    25      S                   -0.249    -0.250     0.001
     In    26      Dzz                  1.000     1.000    -0.000
     In    26      Dzy                  0.999     0.999     0.000
     In    26      Dzx                  0.999     0.999     0.000
     In    26      Dxx-yy               1.000     1.000     0.000
     In    26      Dxy                  0.999     0.999     0.000
     In    26      S                    0.708     0.709    -0.001
     In    26      Px                   0.241     0.241    -0.001
     In    26      Py                   0.239     0.240    -0.001
     In    26      Pz                   0.235     0.236    -0.001
     In    26      S                   -0.243    -0.244     0.001
     In    27      Dzz                  1.000     1.000    -0.000
     In    27      Dzy                  0.999     0.999     0.000
     In    27      Dzx                  0.999     0.999     0.000
     In    27      Dxx-yy               1.000     1.000     0.000
     In    27      Dxy                  0.999     0.999     0.000
     In    27      S                    0.708     0.709    -0.001
     In    27      Px                   0.239     0.240    -0.001
     In    27      Py                   0.241     0.241    -0.001
     In    27      Pz                   0.235     0.236    -0.001
     In    27      S                   -0.243    -0.244     0.001
     In    28      Dzz                  1.000     1.000     0.000
     In    28      Dzy                  0.999     0.999     0.000
     In    28      Dzx                  0.999     0.999     0.000
     In    28      Dxx-yy               1.000     1.000     0.000
     In    28      Dxy                  0.998     0.998     0.000
     In    28      S                    0.705     0.705     0.000
     In    28      Px                   0.240     0.240     0.000
     In    28      Py                   0.240     0.240     0.000
     In    28      Pz                   0.242     0.242     0.000
     In    28      S                   -0.257    -0.256    -0.001
     In    29      Dzz                  1.000     1.000    -0.000
     In    29      Dzy                  0.999     0.999    -0.000
     In    29      Dzx                  0.999     0.999    -0.000
     In    29      Dxx-yy               1.000     1.000    -0.000
     In    29      Dxy                  0.999     0.999    -0.000
     In    29      S                    0.779     0.696     0.082
     In    29      Px                   0.276     0.210     0.066
     In    29      Py                   0.276     0.210     0.066
     In    29      Pz                   0.274     0.209     0.065
     In    29      S                   -0.243    -0.248     0.005
     In    30      Dzz                  1.000     1.000     0.000
     In    30      Dzy                  0.998     0.998     0.000
     In    30      Dzx                  0.999     0.999    -0.000
     In    30      Dxx-yy               1.000     1.000     0.000
     In    30      Dxy                  0.999     0.998     0.000
     In    30      S                    0.712     0.707     0.005
     In    30      Px                   0.238     0.238     0.000
     In    30      Py                   0.246     0.239     0.007
     In    30      Pz                   0.241     0.241     0.001
     In    30      S                   -0.246    -0.248     0.002
     In    31      Dzz                  1.000     1.000     0.000
     In    31      Dzy                  0.999     0.999    -0.000
     In    31      Dzx                  0.998     0.998     0.000
     In    31      Dxx-yy               1.000     1.000     0.000
     In    31      Dxy                  0.999     0.998     0.000
     In    31      S                    0.712     0.707     0.005
     In    31      Px                   0.246     0.239     0.007
     In    31      Py                   0.238     0.238     0.000
     In    31      Pz                   0.241     0.241     0.001
     In    31      S                   -0.246    -0.248     0.002
     In    32      Dzz                  1.000     1.000     0.000
     In    32      Dzy                  0.998     0.998     0.000
     In    32      Dzx                  0.998     0.998     0.000
     In    32      Dxx-yy               1.000     1.000    -0.000
     In    32      Dxy                  0.999     0.999    -0.000
     In    32      S                    0.717     0.712     0.005
     In    32      Px                   0.239     0.239     0.000
     In    32      Py                   0.239     0.239     0.000
     In    32      Pz                   0.248     0.241     0.008
     In    32      S                   -0.241    -0.243     0.002
  ---------------------------------------------------------------
                           Total:     285.815   285.185     0.630
  ---------------------------------------------------------------

     Atomic Populations (Mulliken)
     -----------------------------
Species          Ion Spin      s       p       d       f      Total   Charge(e)   Spin(hbar/2)
==============================================================================================
  P               1   up:     0.903   1.913   0.000   0.000   2.816    -0.604        0.028
                  1   dn:     0.903   1.884   0.000   0.000   2.788
  P               2   up:     0.871   1.962   0.000   0.000   2.832    -0.647        0.018
                  2   dn:     0.870   1.945   0.000   0.000   2.814
  P               3   up:     0.871   1.962   0.000   0.000   2.832    -0.647        0.018
                  3   dn:     0.870   1.945   0.000   0.000   2.814
  P               4   up:     0.867   1.969   0.000   0.000   2.837    -0.673        0.001
                  4   dn:     0.867   1.969   0.000   0.000   2.836
  P               5   up:     0.868   1.969   0.000   0.000   2.838    -0.677       -0.001
                  5   dn:     0.868   1.971   0.000   0.000   2.839
  P               6   up:     0.868   1.969   0.000   0.000   2.838    -0.677       -0.001
                  6   dn:     0.868   1.971   0.000   0.000   2.839
  P               7   up:     0.867   1.969   0.000   0.000   2.837    -0.673       -0.000
                  7   dn:     0.867   1.969   0.000   0.000   2.837
  P               8   up:     0.870   1.964   0.000   0.000   2.833    -0.667       -0.001
                  8   dn:     0.870   1.964   0.000   0.000   2.834
  P               9   up:     0.873   1.956   0.000   0.000   2.828    -0.657        0.000
                  9   dn:     0.873   1.956   0.000   0.000   2.828
  P              10   up:     0.872   1.955   0.000   0.000   2.827    -0.659       -0.005
                 10   dn:     0.872   1.960   0.000   0.000   2.832
  P              11   up:     0.872   1.958   0.000   0.000   2.830    -0.661       -0.001
                 11   dn:     0.872   1.960   0.000   0.000   2.831
  P              12   up:     0.870   1.965   0.000   0.000   2.835    -0.666        0.004
                 12   dn:     0.869   1.962   0.000   0.000   2.831
  P              13   up:     0.873   1.975   0.000   0.000   2.848    -0.660        0.035
                 13   dn:     0.869   1.943   0.000   0.000   2.813
  P              14   up:     0.872   1.963   0.000   0.000   2.835    -0.657        0.013
                 14   dn:     0.871   1.951   0.000   0.000   2.822
  P              15   up:     0.869   1.970   0.000   0.000   2.840    -0.668        0.011
                 15   dn:     0.868   1.960   0.000   0.000   2.829
  P              16   up:     0.870   1.964   0.000   0.000   2.833    -0.667       -0.001
                 16   dn:     0.870   1.964   0.000   0.000   2.834
  P              17   up:     0.872   1.955   0.000   0.000   2.827    -0.659       -0.005
                 17   dn:     0.872   1.960   0.000   0.000   2.832
  P              18   up:     0.873   1.956   0.000   0.000   2.828    -0.657        0.000
                 18   dn:     0.873   1.956   0.000   0.000   2.828
  P              19   up:     0.872   1.958   0.000   0.000   2.830    -0.661       -0.001
                 19   dn:     0.872   1.960   0.000   0.000   2.831
  P              20   up:     0.870   1.965   0.000   0.000   2.835    -0.666        0.004
                 20   dn:     0.869   1.962   0.000   0.000   2.831
  P              21   up:     0.872   1.963   0.000   0.000   2.835    -0.657        0.013
                 21   dn:     0.871   1.951   0.000   0.000   2.822
  P              22   up:     0.873   1.975   0.000   0.000   2.848    -0.660        0.035
                 22   dn:     0.869   1.943   0.000   0.000   2.813
  P              23   up:     0.869   1.970   0.000   0.000   2.840    -0.668        0.011
                 23   dn:     0.868   1.960   0.000   0.000   2.829
  P              24   up:     0.875   1.968   0.000   0.000   2.842    -0.655        0.030
                 24   dn:     0.872   1.941   0.000   0.000   2.812
  P              25   up:     0.868   1.967   0.000   0.000   2.835    -0.671       -0.000
                 25   dn:     0.868   1.967   0.000   0.000   2.836
  P              26   up:     0.868   1.967   0.000   0.000   2.835    -0.671       -0.000
                 26   dn:     0.868   1.967   0.000   0.000   2.836
  P              27   up:     0.872   1.963   0.000   0.000   2.835    -0.657        0.013
                 27   dn:     0.871   1.951   0.000   0.000   2.822
  P              28   up:     0.868   1.969   0.000   0.000   2.837    -0.673        0.000
                 28   dn:     0.868   1.969   0.000   0.000   2.837
  P              29   up:     0.868   1.969   0.000   0.000   2.837    -0.673       -0.000
                 29   dn:     0.868   1.969   0.000   0.000   2.837
  P              30   up:     0.868   1.969   0.000   0.000   2.837    -0.673       -0.000
                 30   dn:     0.868   1.969   0.000   0.000   2.837
  P              31   up:     0.868   1.969   0.000   0.000   2.837    -0.673       -0.000
                 31   dn:     0.868   1.969   0.000   0.000   2.837
  In              1   up:     0.460   0.720   4.995   0.000   6.175     0.649       -0.001
                  1   dn:     0.462   0.719   4.995   0.000   6.176
  In              2   up:     0.476   0.698   4.996   0.000   6.170     0.648       -0.012
                  2   dn:     0.478   0.707   4.996   0.000   6.182
  In              3   up:     0.476   0.698   4.996   0.000   6.170     0.648       -0.012
                  3   dn:     0.478   0.707   4.996   0.000   6.182
  In              4   up:     0.459   0.717   4.995   0.000   6.170     0.657       -0.003
                  4   dn:     0.461   0.718   4.995   0.000   6.173
  In              5   up:     0.504   0.777   4.996   0.000   6.277     0.534        0.088
                  5   dn:     0.473   0.720   4.996   0.000   6.189
  In              6   up:     0.461   0.719   4.995   0.000   6.174     0.653        0.002
                  6   dn:     0.458   0.720   4.995   0.000   6.173
  In              7   up:     0.461   0.719   4.995   0.000   6.174     0.653        0.002
                  7   dn:     0.458   0.720   4.995   0.000   6.173
  In              8   up:     0.485   0.703   4.993   0.000   6.182     0.669        0.032
                  8   dn:     0.491   0.665   4.994   0.000   6.150
  In              9   up:     0.453   0.732   4.994   0.000   6.179     0.646        0.003
                  9   dn:     0.451   0.730   4.994   0.000   6.175
  In             10   up:     0.469   0.716   4.995   0.000   6.181     0.634       -0.005
                 10   dn:     0.467   0.723   4.995   0.000   6.185
  In             11   up:     0.470   0.717   4.995   0.000   6.181     0.633       -0.004
                 11   dn:     0.473   0.718   4.995   0.000   6.186
  In             12   up:     0.452   0.716   4.995   0.000   6.164     0.668       -0.004
                 12   dn:     0.456   0.717   4.995   0.000   6.168
  In             13   up:     0.455   0.720   4.995   0.000   6.169     0.661       -0.001
                 13   dn:     0.456   0.720   4.995   0.000   6.170
  In             14   up:     0.455   0.721   4.995   0.000   6.170     0.660        0.001
                 14   dn:     0.454   0.722   4.995   0.000   6.170
  In             15   up:     0.463   0.723   4.995   0.000   6.180     0.646        0.006
                 15   dn:     0.461   0.719   4.995   0.000   6.174
  In             16   up:     0.481   0.717   4.995   0.000   6.192     0.617        0.001
                 16   dn:     0.477   0.719   4.995   0.000   6.191
  In             17   up:     0.453   0.732   4.994   0.000   6.179     0.646        0.003
                 17   dn:     0.451   0.730   4.994   0.000   6.175
  In             18   up:     0.470   0.717   4.995   0.000   6.181     0.633       -0.004
                 18   dn:     0.473   0.718   4.995   0.000   6.186
  In             19   up:     0.469   0.716   4.995   0.000   6.181     0.634       -0.005
                 19   dn:     0.467   0.723   4.995   0.000   6.185
  In             20   up:     0.452   0.716   4.995   0.000   6.164     0.668       -0.004
                 20   dn:     0.456   0.717   4.995   0.000   6.168
  In             21   up:     0.455   0.720   4.995   0.000   6.169     0.661       -0.001
                 21   dn:     0.456   0.720   4.995   0.000   6.170
  In             22   up:     0.463   0.723   4.995   0.000   6.180     0.646        0.006
                 22   dn:     0.461   0.719   4.995   0.000   6.174
  In             23   up:     0.455   0.721   4.995   0.000   6.170     0.660        0.001
                 23   dn:     0.454   0.722   4.995   0.000   6.170
  In             24   up:     0.481   0.717   4.995   0.000   6.192     0.617        0.001
                 24   dn:     0.477   0.719   4.995   0.000   6.191
  In             25   up:     0.458   0.722   4.995   0.000   6.174     0.654        0.002
                 25   dn:     0.456   0.721   4.995   0.000   6.172
  In             26   up:     0.466   0.715   4.995   0.000   6.176     0.647       -0.002
                 26   dn:     0.465   0.718   4.995   0.000   6.178
  In             27   up:     0.466   0.715   4.995   0.000   6.176     0.647       -0.002
                 27   dn:     0.465   0.718   4.995   0.000   6.178
  In             28   up:     0.448   0.722   4.995   0.000   6.165     0.670       -0.001
                 28   dn:     0.449   0.721   4.995   0.000   6.165
  In             29   up:     0.535   0.826   4.995   0.000   6.356     0.571        0.283
                 29   dn:     0.448   0.629   4.996   0.000   6.073
  In             30   up:     0.466   0.725   4.995   0.000   6.186     0.643        0.015
                 30   dn:     0.459   0.717   4.995   0.000   6.171
  In             31   up:     0.466   0.725   4.995   0.000   6.186     0.643        0.015
                 31   dn:     0.459   0.717   4.995   0.000   6.171
  In             32   up:     0.476   0.726   4.995   0.000   6.197     0.622        0.016
                 32   dn:     0.469   0.718   4.994   0.000   6.181
==============================================================================================

                 Bond                   Population        Spin       Length (A)
================================================================================
              P 1  -- In 8                   0.84        -0.01          2.45118
              P 6  -- In 8                   0.73        -0.00          2.49322
              P 5  -- In 8                   0.73        -0.00          2.49322
              P 3  -- In 9                   0.66        -0.00          2.51463
              P 2  -- In 17                  0.66        -0.00          2.51463
              P 15 -- In 17                  0.65        -0.00          2.54341
              P 23 -- In 9                   0.65        -0.00          2.54342
              P 20 -- In 17                  0.65        -0.00          2.54587
              P 12 -- In 9                   0.65        -0.00          2.54587
              P 14 -- In 16                  0.65        -0.00          2.54627
              P 21 -- In 24                  0.65        -0.00          2.54627
              P 20 -- In 23                  0.67         0.00          2.54665
              P 12 -- In 14                  0.67         0.00          2.54665
              P 8  -- In 13                  0.67         0.00          2.54715
              P 16 -- In 21                  0.67         0.00          2.54715
              P 22 -- In 24                  0.65        -0.00          2.54769
              P 13 -- In 16                  0.65        -0.00          2.54769
              P 21 -- In 7                   0.66        -0.00          2.54926
              P 14 -- In 6                   0.66        -0.00          2.54926
              P 11 -- In 21                  0.65         0.00          2.54936
              P 19 -- In 13                  0.65         0.00          2.54936
              P 22 -- In 23                  0.66         0.00          2.55080
              P 13 -- In 14                  0.66         0.00          2.55080
              P 30 -- In 32                  0.65        -0.00          2.55080
              P 29 -- In 32                  0.65        -0.00          2.55080
              P 3  -- In 3                   0.64        -0.00          2.55082
              P 2  -- In 2                   0.64        -0.00          2.55082
              P 15 -- In 6                   0.66        -0.00          2.55115
              P 23 -- In 7                   0.66        -0.00          2.55115
              P 4  -- In 7                   0.67        -0.00          2.55152
              P 4  -- In 6                   0.67        -0.00          2.55152
              P 7  -- In 23                  0.67         0.00          2.55199
              P 7  -- In 14                  0.67         0.00          2.55199
              P 31 -- In 22                  0.66        -0.00          2.55219
              P 31 -- In 15                  0.66        -0.00          2.55219
              P 28 -- In 31                  0.66        -0.00          2.55222
              P 28 -- In 30                  0.66        -0.00          2.55222
              P 30 -- In 21                  0.66         0.00          2.55304
              P 29 -- In 13                  0.66         0.00          2.55304
              P 4  -- In 4                   0.66        -0.00          2.55375
              P 26 -- In 28                  0.66         0.00          2.55378
              P 25 -- In 28                  0.66         0.00          2.55378
              P 7  -- In 4                   0.66         0.00          2.55444
              P 15 -- In 31                  0.63        -0.01          2.55500
              P 23 -- In 30                  0.63        -0.01          2.55500
              P 10 -- In 1                   0.65        -0.00          2.55658
              P 17 -- In 1                   0.65        -0.00          2.55658
              P 25 -- In 9                   0.66        -0.00          2.55736
              P 26 -- In 17                  0.66        -0.00          2.55736
              P 27 -- In 18                  0.66         0.00          2.55750
              P 27 -- In 11                  0.66         0.00          2.55750
              P 29 -- In 30                  0.66        -0.00          2.55829
              P 30 -- In 31                  0.66        -0.00          2.55829
              P 24 -- In 26                  0.65         0.00          2.55834
              P 24 -- In 27                  0.65         0.00          2.55834
              P 30 -- In 22                  0.65         0.00          2.55881
              P 29 -- In 15                  0.65         0.00          2.55881
              P 28 -- In 28                  0.65         0.00          2.55889
              P 20 -- In 22                  0.62        -0.00          2.55915
              P 12 -- In 15                  0.62        -0.00          2.55915
              P 31 -- In 1                   0.65        -0.00          2.55929
              P 28 -- In 25                  0.65        -0.00          2.55954
              P 31 -- In 28                  0.66         0.00          2.55992
              P 5  -- In 23                  0.61         0.00          2.56049
              P 6  -- In 14                  0.61         0.00          2.56049
              P 3  -- In 4                   0.65         0.00          2.56078
              P 2  -- In 4                   0.65         0.00          2.56078
              P 4  -- In 1                   0.64        -0.00          2.56116
              P 10 -- In 11                  0.65         0.00          2.56154
              P 17 -- In 18                  0.65         0.00          2.56154
              P 7  -- In 25                  0.64        -0.00          2.56189
              P 3  -- In 10                  0.57        -0.00          2.56237
              P 2  -- In 19                  0.57        -0.00          2.56237
              P 25 -- In 11                  0.64         0.00          2.56245
              P 26 -- In 18                  0.64         0.00          2.56245
              P 27 -- In 32                  0.63        -0.01          2.56252
              P 9  -- In 25                  0.65        -0.00          2.56253
              P 18 -- In 25                  0.65        -0.00          2.56253
              P 14 -- In 15                  0.64        -0.00          2.56258
              P 21 -- In 22                  0.64        -0.00          2.56258
              P 6  -- In 7                   0.61         0.00          2.56298
              P 5  -- In 6                   0.61         0.00          2.56298
              P 26 -- In 27                  0.66         0.00          2.56380
              P 25 -- In 26                  0.66         0.00          2.56380
              P 5  -- In 21                  0.64         0.00          2.56557
              P 6  -- In 13                  0.64         0.00          2.56557
              P 8  -- In 10                  0.66         0.00          2.56573
              P 16 -- In 19                  0.66         0.00          2.56573
              P 22 -- In 30                  0.63         0.00          2.56574
              P 13 -- In 31                  0.63         0.00          2.56574
              P 19 -- In 24                  0.64         0.00          2.56705
              P 11 -- In 16                  0.64         0.00          2.56705
              P 24 -- In 32                  0.61         0.00          2.56762
              P 16 -- In 24                  0.64        -0.00          2.56795
              P 8  -- In 16                  0.64        -0.00          2.56795
              P 20 -- In 20                  0.65         0.00          2.56986
              P 12 -- In 12                  0.65         0.00          2.56986
              P 18 -- In 26                  0.65        -0.00          2.57019
              P 9  -- In 27                  0.65        -0.00          2.57019
              P 17 -- In 20                  0.63         0.00          2.57326
              P 10 -- In 12                  0.63         0.00          2.57326
              P 19 -- In 3                   0.67         0.00          2.57358
              P 11 -- In 2                   0.67         0.00          2.57358
              P 23 -- In 20                  0.65         0.00          2.57401
              P 15 -- In 12                  0.65         0.00          2.57401
              P 24 -- In 29                  0.62        -0.01          2.57675
              P 16 -- In 18                  0.64         0.00          2.58054
              P 8  -- In 11                  0.64         0.00          2.58054
              P 17 -- In 3                   0.64         0.00          2.58253
              P 10 -- In 2                   0.64         0.00          2.58253
              P 18 -- In 20                  0.64         0.00          2.58285
              P 9  -- In 12                  0.64         0.00          2.58285
              P 19 -- In 26                  0.62         0.00          2.58300
              P 11 -- In 27                  0.62         0.00          2.58300
              P 22 -- In 29                  0.62        -0.02          2.58323
              P 13 -- In 29                  0.62        -0.02          2.58323
              P 27 -- In 5                   0.61        -0.00          2.58693
              P 18 -- In 19                  0.64         0.00          2.59863
              P 9  -- In 10                  0.64         0.00          2.59863
              P 21 -- In 5                   0.60        -0.01          2.60201
              P 14 -- In 5                   0.60        -0.01          2.60201
              P 1  -- In 19                  0.53         0.00          2.65900
              P 1  -- In 10                  0.53         0.00          2.65900
================================================================================

 Hirshfeld supercell size:           2           2           2
Standard grid dimensions: 240 240 240
Fine grid dimensions:     240 240 240


     Hirshfeld Analysis
     ------------------
Species   Ion     Hirshfeld Charge (e)  Spin (hbar/2)
===================================================
  P        1                -0.25        0.04
  P        2                -0.24        0.01
  P        3                -0.24        0.01
  P        4                -0.24        0.00
  P        5                -0.24        0.00
  P        6                -0.24        0.00
  P        7                -0.24        0.00
  P        8                -0.24       -0.00
  P        9                -0.24        0.00
  P       10                -0.24       -0.00
  P       11                -0.23       -0.00
  P       12                -0.24        0.00
  P       13                -0.24        0.04
  P       14                -0.24        0.01
  P       15                -0.24        0.01
  P       16                -0.24       -0.00
  P       17                -0.24       -0.00
  P       18                -0.24        0.00
  P       19                -0.23       -0.00
  P       20                -0.24        0.00
  P       21                -0.24        0.01
  P       22                -0.24        0.04
  P       23                -0.24        0.01
  P       24                -0.24        0.03
  P       25                -0.24       -0.00
  P       26                -0.24       -0.00
  P       27                -0.24        0.01
  P       28                -0.24        0.00
  P       29                -0.24        0.00
  P       30                -0.24        0.00
  P       31                -0.24        0.00
  In       1                 0.24        0.00
  In       2                 0.23       -0.00
  In       3                 0.23       -0.00
  In       4                 0.24        0.00
  In       5                 0.12        0.06
  In       6                 0.24        0.00
  In       7                 0.24        0.00
  In       8                 0.26        0.03
  In       9                 0.23        0.00
  In      10                 0.23        0.01
  In      11                 0.24        0.00
  In      12                 0.24       -0.00
  In      13                 0.24        0.00
  In      14                 0.24        0.00
  In      15                 0.24        0.00
  In      16                 0.23        0.00
  In      17                 0.23        0.00
  In      18                 0.24        0.00
  In      19                 0.23        0.01
  In      20                 0.24       -0.00
  In      21                 0.24        0.00
  In      22                 0.24        0.00
  In      23                 0.24        0.00
  In      24                 0.23        0.00
  In      25                 0.24        0.00
  In      26                 0.24        0.00
  In      27                 0.24        0.00
  In      28                 0.24        0.00
  In      29                 0.16        0.21
  In      30                 0.24        0.01
  In      31                 0.24        0.01
  In      32                 0.23        0.01
===================================================

 
 A BibTeX formatted list of references used in this run has been written to 
 P_Vacancy_Migration_0->3_Singlepoints_4.bib
 
Initialisation time =     30.82 s
Calculation time    =   8405.69 s
Finalisation time   =    149.80 s
Total time          =   8586.30 s
Peak Memory Use     = 9594828 kB
 
Overall parallel efficiency rating: Terrible (34%)
 
Data was distributed by:-
G-vector (3-way); efficiency rating: Poor (37%)
k-point (36-way); efficiency rating: Very good (81%)
