 +-------------------------------------------------+
 |                                                 |
 |      CCC   AA    SSS  TTTTT  EEEEE  PPPP        |
 |     C     A  A  S       T    E      P   P       |
 |     C     AAAA   SS     T    EEE    PPPP        |
 |     C     A  A     S    T    E      P           |
 |      CCC  A  A  SSS     T    EEEEE  P           |
 |                                                 |
 +-------------------------------------------------+
 |                                                 |
 | Welcome to Academic Release CASTEP version 24.1 |
 | Ab Initio Total Energy Program                  |
 |                                                 |
 | Authors:                                        |
 | M. Segall, M. Probert, C. Pickard, P. Hasnip,   |
 | S. Clark, K. Refson, J. R. Yates,               |
 | A. Bartok-Partay, M. Payne                      |
 |                                                 |
 | Contributors:                                   |
 | P. Lindan, P. Haynes, J. White, V. Milman,      |
 | N. Govind, M. Gibson, P. Tulip, V. Cocula,      |
 | B. Montanari, D. Quigley, M. Glover,            |
 | L. Bernasconi, A. Perlov, M. Plummer,           |
 | E. McNellis, J. Meyer, J. Gale, D. Jochym       |
 | J. Aarons, B. Walker, R. Gillen, D. Jones       |
 | T. Green, I. J. Bush, C. J. Armstrong,          |
 | E. J. Higgins, E. L. Brown, M. S. McFly,        |
 | J. Wilkins, B-C. Shih, P. J. P. Byrne,          |
 | R. J. Maurer, J. C. Womack, J. Dziedzic,        |
 | L. LeBlanc, T. K. Stenczel, J. Kermode,         |
 | S. Sturniolo, B. Shi, B. Durham, M. Evans,      |
 | M. J. Smith, A. Tamerus, Z. Hawkhead,           |
 | V. Ravindran, T. Hollins, S. A. Joyce,          |
 | R. T. Strong, A. M. Reilly, S. J. Donaldson     |
 |                                                 |
 | Copyright (c) 2000 - 2023                       |
 |                                                 |
 |     Distributed under license from Cambridge    |
 |     Enterprise for academic use only.           |
 |                                                 |
 | Please cite                                     |
 |                                                 |
 |     "First principles methods using CASTEP"     |
 |                                                 |
 |         Zeitschrift fuer Kristallographie       |
 |           220(5-6) pp. 567-570 (2005)           |
 |                                                 |
 | S. J. Clark, M. D. Segall, C. J. Pickard,       |
 | P. J. Hasnip, M. J. Probert, K. Refson,         |
 | M. C. Payne                                     |
 |                                                 |
 |       in all publications arising from          |
 |              your use of CASTEP                 |
 |                                                 |
 +-------------------------------------------------+
 |                                                 |
 |              http://www.castep.org              |
 |                                                 |
 +-------------------------------------------------+



 Compiled for  GNU 11.2.0 on 04-04-2024 18:39:17
 from code version 6355fd106 Castep241_branch Thu Mar 7 17:56:19 2024 +0000
 Compiler: GNU Fortran 11.2.0; Optimisation: FAST
 Comms   : MPI VERSION : CRAY MPICH version 8.1.23.14 (ANL base 3.4a2)
 MATHLIBS: default (LAPACK version 3.10.1)
 FFT Lib : fftw3 version commercial-fftw-3.3.10-sse2-avx-avx2-avx2_128
 Fundamental constants values: CODATA 2018

 Run started: Wed, 30 Jul 2025 17:01:59 +0100

 Atomic calculation performed for P: 1s2 2s2 2p6 3s2 3p3

 Converged in 47 iterations to an ae energy of -9309.074 eV

   ============================================================                
   | Pseudopotential Report - Date of generation 30-07-2025   |                
   ------------------------------------------------------------                
   | Element: P Ionic charge:  5.00 Level of theory: RSCAN    |                
   | Atomic Solver: Koelling-Harmon                           |                
   |                                                          |                
   |               Reference Electronic Structure             |                
   |         Orbital         Occupation         Energy        |                
   |            3s              2.000           -0.535        |                
   |            3p              3.000           -0.209        |                
   |                                                          |                
   |                 Pseudopotential Definition               |                
   |        Beta     l      e      Rc     scheme   norm       |                
   |          1      0   -0.535   1.807     qc      0         |                
   |          2      0    0.250   1.807     qc      0         |                
   |          3      1   -0.209   1.807     qc      0         |                
   |          4      1    0.250   1.807     qc      0         |                
   |          5      2    0.000   1.807     qc      0         |                
   |          6      2    0.250   1.807     qc      0         |                
   |         loc     3    0.000   1.807     pn      0         |                
   |                                                          |                
   | Augmentation charge Rinner = 1.263                       |                
   | Partial core correction Rc = 1.263                       |                
   ------------------------------------------------------------                
   | "3|1.8|4|4|5|30:31:32"                                   |                
   ------------------------------------------------------------                
   |      Author: Chris J. Pickard, Cambridge University      |                
   ============================================================                
 Warning: otfg_output_psp cannot write out meta-GGA pseudopotentials presently.

 Atomic calculation performed for In:
 1s2 2s2 2p6 3s2 3p6 3d10 4s2 4p6 4d10 5s2 5p1

 Converged in 84 iterations to an ae energy of -160093.328 eV

   ============================================================                
   | Pseudopotential Report - Date of generation 30-07-2025   |                
   ------------------------------------------------------------                
   | Element: In Ionic charge: 13.00 Level of theory: RSCAN   |                
   | Atomic Solver: Koelling-Harmon                           |                
   |                                                          |                
   |               Reference Electronic Structure             |                
   |         Orbital         Occupation         Energy        |                
   |            4d             10.000           -0.711        |                
   |            5s              2.000           -0.313        |                
   |            5p              1.000           -0.095        |                
   |                                                          |                
   |                 Pseudopotential Definition               |                
   |        Beta     l      e      Rc     scheme   norm       |                
   |          1      0   -0.313   2.501     qc      0         |                
   |          2      0    0.250   2.501     qc      0         |                
   |          3      1   -0.095   2.501     qc      0         |                
   |          4      1    0.250   2.501     qc      0         |                
   |          5      2   -0.711   2.207     qc      0         |                
   |          6      2    0.250   2.207     qc      0         |                
   |         loc     3    0.000   2.501     pn      0         |                
   |                                                          |                
   | Augmentation charge Rinner = 1.504                       |                
   | Partial core correction Rc = 1.504                       |                
   ------------------------------------------------------------                
   | "3|2.5|2.5|1.5|7|8|9|50:51:42U2.2U2.2"                   |                
   ------------------------------------------------------------                
   |      Author: Chris J. Pickard, Cambridge University      |                
   ============================================================                
 Warning: otfg_output_psp cannot write out meta-GGA pseudopotentials presently.

 Pseudo atomic calculation performed for P 3s2 3p3

 Converged in 23 iterations to a total energy of -208.0292 eV

 Pseudo atomic calculation performed for In 4d10 5s2 5p1

 Converged in 42 iterations to a total energy of -1747.4501 eV
 Calculation parallelised over 108 processes.
 Data is distributed by G-vector(3-way) and k-point(36-way)
 Each process may use up to 16 threads.

 ************************************ Title ************************************
 

 ***************************** General Parameters ******************************
  
 output verbosity                               : normal  (1)
 write checkpoint data to                       : P_Vacancy_Migration_0->3_Singlepoints_4.check
 type of calculation                            : single point energy
 stress calculation                             : off
 density difference calculation                 : off
 electron localisation func (ELF) calculation   : off
 Hirshfeld analysis                             : on
 polarisation (Berry phase) analysis            : off
 molecular orbital projected DOS                : off
 deltaSCF calculation                           : off
 unlimited duration calculation
 timing information                             : on
 memory usage estimate                          : on
 write extra output files                       : on
 write final potential to formatted file        : off
 write final density to formatted file          : off
 write BibTeX reference list                    : on
 write OTFG pseudopotential files               : on
 write electrostatic potential file             : on
 write bands file                               : on
 checkpoint writing                             : off
  
 output         length unit                     : A
 output           mass unit                     : amu
 output           time unit                     : ps
 output         charge unit                     : e
 output           spin unit                     : hbar/2
 output         energy unit                     : eV
 output          force unit                     : eV/A
 output       velocity unit                     : A/ps
 output       pressure unit                     : GPa
 output     inv_length unit                     : 1/A
 output      frequency unit                     : cm-1
 output force constant unit                     : eV/A**2
 output         volume unit                     : A**3
 output   IR intensity unit                     : (D/A)**2/amu
 output         dipole unit                     : D
 output         efield unit                     : eV/A/e
 output        entropy unit                     : J/mol/K
 output    efield chi2 unit                     : pm/V
  
 wavefunctions paging                           : none
 random number generator seed                   :  170159989
 data distribution                              : optimal for this architecture
 optimization strategy                          : balance speed and memory

 *********************** Exchange-Correlation Parameters ***********************
  
 using functional                               : RSCAN
 relativistic treatment                         : Koelling-Harmon
 DFT+D: Semi-empirical dispersion correction    : off

 ************************* Pseudopotential Parameters **************************
  
 pseudopotential representation                 : reciprocal space
 <beta|phi> representation                      : reciprocal space
 spin-orbit coupling                            : off

 **************************** Basis Set Parameters *****************************
  
 plane wave basis set cut-off                   :   900.0000   eV
 size of standard grid                          :     2.0000
 size of   fine   gmax                          :    30.7390   1/A
 finite basis set correction                    : none

 **************************** Electronic Parameters ****************************
  
 number of  electrons                           :  571.0    
 net charge of system                           :  0.000    
 net spin   of system                           :  1.000    
 number of  up  spins                           :  286.0    
 number of down spins                           :  285.0    
 treating system as spin-polarized
 number of bands                                :        343

 ********************* Electronic Minimization Parameters **********************
  
 Method: Treating system as metallic with density mixing treatment of electrons,
         and number of  SD  steps               :          1
         and number of  CG  steps               :          4
  
 total energy / atom convergence tol.           : 0.1000E-07   eV
 eigen-energy convergence tolerance             : 0.2203E-08   eV
 max force / atom convergence tol.              : ignored
 convergence tolerance window                   :          3   cycles
 max. number of SCF cycles                      :        100
 number of fixed-spin iterations                :         10
 smearing scheme                                : Gaussian
 smearing width                                 : 0.2000       eV
 Fermi energy convergence tolerance             : 0.2721E-13   eV
 periodic dipole correction                     : NONE

 ************************** Density Mixing Parameters **************************
  
 density-mixing scheme                          : Pulay
 max. length of mixing history                  :         20
 charge density mixing amplitude                : 0.5000    
   spin density mixing amplitude                :  2.000    
 cut-off energy for mixing                      :  900.0       eV

 *********************** Population Analysis Parameters ************************
  
 Population analysis with cutoff                :  3.000       A
 Population analysis output                     : summary and pdos components

 *******************************************************************************
  

                           -------------------------------
                                      Unit Cell
                           -------------------------------
        Real Lattice(A)                      Reciprocal Lattice(1/A)
    11.8016820    -0.0000080    -0.0000080        0.532397442   0.000000361   0.000000361
    -0.0000080    11.8016820    -0.0000080        0.000000361   0.532397442   0.000000361
    -0.0000080    -0.0000080    11.8016820        0.000000361   0.000000361   0.532397442

                       Lattice parameters(A)       Cell Angles
                    a =     11.801682          alpha =   90.000078
                    b =     11.801682          beta  =   90.000078
                    c =     11.801682          gamma =   90.000078

                       Current cell volume =          1643.734705       A**3
                                   density =             2.819410   AMU/A**3
                                           =             4.681741     g/cm^3

                           -------------------------------
                                     Cell Contents
                           -------------------------------
                         Total number of ions in cell =   63
                      Total number of species in cell =    2
                        Max number of any one species =   32

            xxxxxxxxxxxxxxxxxxxxxxxxxxxxxxxxxxxxxxxxxxxxxxxxxxxxxxxxxxxx
            x  Element    Atom        Fractional coordinates of atoms  x
            x            Number           u          v          w      x
            x----------------------------------------------------------x
            x  P            1         0.273980   0.273980   0.330471   x 
            x  P            2         0.379097   0.118881   0.107100   x 
            x  P            3         0.118881   0.379097   0.107100   x 
            x  P            4         0.121932   0.121932   0.873847   x 
            x  P            5         0.380149   0.118858   0.638578   x 
            x  P            6         0.118858   0.380149   0.638578   x 
            x  P            7         0.377873   0.377873   0.873303   x 
            x  P            8         0.126856   0.620165   0.375576   x 
            x  P            9         0.373015   0.617366   0.136376   x 
            x  P           10         0.124951   0.879381   0.134254   x 
            x  P           11         0.372607   0.880414   0.375469   x 
            x  P           12         0.125714   0.633260   0.875473   x 
            x  P           13         0.375249   0.621346   0.618613   x 
            x  P           14         0.123572   0.878546   0.618152   x 
            x  P           15         0.373170   0.865327   0.875368   x 
            x  P           16         0.620165   0.126856   0.375576   x 
            x  P           17         0.879381   0.124951   0.134254   x 
            x  P           18         0.617366   0.373015   0.136376   x 
            x  P           19         0.880414   0.372607   0.375469   x 
            x  P           20         0.633260   0.125714   0.875473   x 
            x  P           21         0.878546   0.123572   0.618152   x 
            x  P           22         0.621346   0.375249   0.618613   x 
            x  P           23         0.865327   0.373170   0.875368   x 
            x  P           24         0.625614   0.625614   0.375593   x 
            x  P           25         0.874955   0.623699   0.123647   x 
            x  P           26         0.623699   0.874955   0.123647   x 
            x  P           27         0.874096   0.874096   0.375440   x 
            x  P           28         0.623644   0.623644   0.876976   x 
            x  P           29         0.874775   0.624778   0.627839   x 
            x  P           30         0.624778   0.874775   0.627839   x 
            x  P           31         0.875858   0.875858   0.876606   x 
            x  In           1        -0.000405  -0.000405   0.004828   x 
            x  In           2         0.254793   0.013127   0.248771   x 
            x  In           3         0.013127   0.254793   0.248771   x 
            x  In           4         0.249992   0.249992  -0.007887   x 
            x  In           5         0.009607   0.009607   0.482035   x 
            x  In           6         0.246926  -0.007764   0.754221   x 
            x  In           7        -0.007764   0.246926   0.754221   x 
            x  In           8         0.253963   0.253962   0.536348   x 
            x  In           9        -0.005719   0.504245  -0.012176   x 
            x  In          10         0.242202   0.483314   0.252189   x 
            x  In          11        -0.000991   0.747338   0.251853   x 
            x  In          12         0.249718   0.748738   0.012153   x 
            x  In          13        -0.000247   0.500379   0.502296   x 
            x  In          14         0.251709   0.506939   0.754173   x 
            x  In          15         0.000219   0.755095   0.747338   x 
            x  In          16         0.249862   0.750292   0.499309   x 
            x  In          17         0.504245  -0.005719  -0.012176   x 
            x  In          18         0.747338  -0.000991   0.251853   x 
            x  In          19         0.483314   0.242202   0.252189   x 
            x  In          20         0.748738   0.249718   0.012153   x 
            x  In          21         0.500379  -0.000247   0.502296   x 
            x  In          22         0.755095   0.000219   0.747338   x 
            x  In          23         0.506939   0.251709   0.754173   x 
            x  In          24         0.750292   0.249862   0.499309   x 
            x  In          25         0.499838   0.499838   0.005075   x 
            x  In          26         0.751586   0.499553   0.252199   x 
            x  In          27         0.499553   0.751586   0.252199   x 
            x  In          28         0.749803   0.749803   0.000115   x 
            x  In          29         0.492486   0.492486   0.486012   x 
            x  In          30         0.744579   0.499523   0.747617   x 
            x  In          31         0.499523   0.744579   0.747617   x 
            x  In          32         0.750092   0.750092   0.503461   x 
            xxxxxxxxxxxxxxxxxxxxxxxxxxxxxxxxxxxxxxxxxxxxxxxxxxxxxxxxxxxx


                         No user defined ionic velocities

                           -------------------------------
                                   Details of Species
                           -------------------------------

                               Mass of species in AMU
                                    P   30.9737600
                                    In  114.8180000

                          Electric Quadrupole Moment (Barn)
                                    P    1.0000000 No Isotope Defined
                                    In    0.7700000 Isotope115

                          Files used for pseudopotentials:
                                    P 3|1.8|4|4|5|30:31:32
                                    In 3|2.5|2.5|1.5|7|8|9|50:51:42U2.2U2.2

                           -------------------------------
                              k-Points For BZ Sampling
                           -------------------------------
                       MP grid size for SCF calculation is  4  4  4
                            with an offset of   0.125  0.125  0.125
                       Number of kpoints used =            36

                           -------------------------------
                               Symmetry and Constraints
                           -------------------------------

                      Maximum deviation from symmetry =  0.00000         ANG

                      Number of symmetry operations   =           1
                      Number of ionic constraints     =           3
                      Point group of crystal =     1: C1, 1, 1
                      Space group of crystal =     8: Cm, C -2y

             Set iprint > 1 for details on symmetry rotations/translations

                         Centre of mass is constrained
             Set iprint > 1 for details of linear ionic constraints

                         Number of cell constraints= 0
                         Cell constraints are:  1 2 3 4 5 6

                         External pressure/stress (GPa)
                          0.00000   0.00000   0.00000
                                    0.00000   0.00000
                                              0.00000
 
+---------------- MEMORY AND SCRATCH DISK ESTIMATES PER PROCESS --------------+
|                                                     Memory          Disk    |
| Baseline code, static data and system overhead      368.0 MB         0.0 MB |
| BLAS internal memory storage                          0.0 MB         0.0 MB |
| Model and support data                             4302.1 MB         0.0 MB |
| Electronic energy minimisation requirements        1320.9 MB         0.0 MB |
| Force calculation requirements                      127.4 MB         0.0 MB |
|                                               ----------------------------- |
| Approx. total storage required per process         5991.0 MB         0.0 MB |
|                                                                             |
| Requirements will fluctuate during execution and may exceed these estimates |
+-----------------------------------------------------------------------------+
Calculating approximate eigenstates for fixed initial Hamiltonian
Cut-off for approx. calculation is   89.988 eV
Improving approx. states at cut-off of  450.000 eV
Resetting cut-off to  900.000 eV
Calculating total energy with cut-off of  900.000 eV.
------------------------------------------------------------------------ <-- SCF
SCF loop      Energy           Fermi           Energy gain       Timer   <-- SCF
                               energy          per atom          (sec)   <-- SCF
------------------------------------------------------------------------ <-- SCF
Initial  -6.28280718E+004  0.00000000E+000                       450.31  <-- SCF
      1  -6.25842610E+004  3.18998678E+000  -3.87001274E+000     891.07  <-- SCF
      2  -6.25845298E+004  3.18957819E+000   4.26647595E-003    1208.62  <-- SCF
      3  -6.26516939E+004  3.27410677E+000   1.06609729E+000    1553.91  <-- SCF
      4  -6.26640222E+004  3.30832349E+000   1.95686708E-001    2058.10  <-- SCF
      5  -6.26716341E+004  3.39026507E+000   1.20824702E-001    2414.10  <-- SCF
      6  -6.26604864E+004  3.57866363E+000  -1.76948427E-001    2763.46  <-- SCF
      7  -6.26593557E+004  3.63715471E+000  -1.79474401E-002    3115.99  <-- SCF
      8  -6.26590577E+004  3.65709714E+000  -4.73064729E-003    3482.26  <-- SCF
      9  -6.26598315E+004  3.65753664E+000   1.22833059E-002    3826.87  <-- SCF
     10  -6.26603296E+004  3.68615028E+000   7.90594223E-003    4177.57  <-- SCF
     11  -6.26603856E+004  3.68124163E+000   8.89365625E-004    4530.92  <-- SCF
     12  -6.26604039E+004  3.67892049E+000   2.90965650E-004    4892.98  <-- SCF
     13  -6.26604101E+004  3.67751070E+000   9.77362570E-005    5248.06  <-- SCF
     14  -6.26604116E+004  3.67716572E+000   2.43225210E-005    5606.77  <-- SCF
     15  -6.26604119E+004  3.67715625E+000   3.66587434E-006    5948.09  <-- SCF
     16  -6.26604120E+004  3.67707780E+000   2.84291367E-006    6303.43  <-- SCF
     17  -6.26604121E+004  3.67712217E+000   6.20991966E-007    6638.42  <-- SCF
     18  -6.26604121E+004  3.67725468E+000   3.34160664E-007    6944.58  <-- SCF
     19  -6.26604121E+004  3.67732247E+000   1.43510128E-007    7243.19  <-- SCF
     20  -6.26604121E+004  3.67734775E+000   3.90042047E-008    7510.24  <-- SCF
     21  -6.26604121E+004  3.67733343E+000   1.55368248E-008    7772.18  <-- SCF
     22  -6.26604121E+004  3.67731956E+000   2.47918235E-009    8013.66  <-- SCF
     23  -6.26604121E+004  3.67730888E+000   6.48767175E-010    8267.03  <-- SCF
------------------------------------------------------------------------ <-- SCF
 
Integrated Spin Density     =    0.631942     hbar/2
Integrated |Spin Density|   =    0.849535     hbar/2
 
Final energy, E             =  -62660.34135399     eV
Final free energy (E-TS)    =  -62660.41210671     eV
(energies not corrected for finite basis set)
 
NB est. 0K energy (E-0.5TS)      =  -62660.37673035     eV
 

 ************************** Forces **************************
 *                                                          *
 *               Cartesian components (eV/A)                *
 * -------------------------------------------------------- *
 *                         x            y            z      *
 *                                                          *
 * P               1      0.34307      0.34307     -0.32302 *
 * P               2     -0.09577      0.11195      0.05046 *
 * P               3      0.11195     -0.09577      0.05045 *
 * P               4     -0.00286     -0.00285      0.05451 *
 * P               5     -0.07367     -0.02992      0.01297 *
 * P               6     -0.02992     -0.07367      0.01297 *
 * P               7     -0.01058     -0.01058      0.07609 *
 * P               8     -0.04952      0.07639     -0.01058 *
 * P               9     -0.04103      0.04392     -0.04209 *
 * P              10      0.02616     -0.07218     -0.09754 *
 * P              11     -0.00578      0.00453      0.02255 *
 * P              12     -0.02175     -0.06053      0.03859 *
 * P              13      0.05580      0.08640      0.09199 *
 * P              14     -0.08097     -0.06535      0.08875 *
 * P              15      0.00613      0.00122      0.03566 *
 * P              16      0.07639     -0.04952     -0.01057 *
 * P              17     -0.07218      0.02616     -0.09753 *
 * P              18      0.04392     -0.04103     -0.04209 *
 * P              19      0.00453     -0.00578      0.02255 *
 * P              20     -0.06054     -0.02175      0.03859 *
 * P              21     -0.06536     -0.08097      0.08875 *
 * P              22      0.08640      0.05580      0.09198 *
 * P              23      0.00122      0.00613      0.03566 *
 * P              24      0.00636      0.00636      0.07667 *
 * P              25     -0.01819     -0.00538     -0.01958 *
 * P              26     -0.00538     -0.01819     -0.01958 *
 * P              27     -0.04273     -0.04273      0.08133 *
 * P              28     -0.01624     -0.01624      0.00103 *
 * P              29     -0.02108     -0.01655     -0.00130 *
 * P              30     -0.01654     -0.02108     -0.00130 *
 * P              31     -0.00523     -0.00524      0.01073 *
 * In              1      0.00353      0.00353     -0.05364 *
 * In              2     -0.28378      0.01562      0.11441 *
 * In              3      0.01561     -0.28378      0.11441 *
 * In              4     -0.02508     -0.02508      0.01942 *
 * In              5      0.32365      0.32365     -0.30032 *
 * In              6     -0.02303     -0.02007     -0.00258 *
 * In              7     -0.02007     -0.02303     -0.00257 *
 * In              8      0.09529      0.09530     -0.05497 *
 * In              9     -0.08074      0.00641      0.00578 *
 * In             10      0.06752     -0.04039      0.11498 *
 * In             11      0.01919      0.00455      0.03845 *
 * In             12      0.02758     -0.01250     -0.01791 *
 * In             13      0.01330      0.03373     -0.01787 *
 * In             14      0.03218      0.02483      0.00761 *
 * In             15      0.06996      0.03005     -0.03450 *
 * In             16     -0.04919     -0.00115     -0.02532 *
 * In             17      0.00641     -0.08074      0.00578 *
 * In             18      0.00455      0.01919      0.03845 *
 * In             19     -0.04039      0.06752      0.11497 *
 * In             20     -0.01250      0.02758     -0.01791 *
 * In             21      0.03373      0.01330     -0.01787 *
 * In             22      0.03005      0.06996     -0.03451 *
 * In             23      0.02483      0.03218      0.00762 *
 * In             24     -0.00115     -0.04919     -0.02532 *
 * In             25     -0.00622     -0.00622      0.00554 *
 * In             26     -0.01786     -0.02113     -0.07967 *
 * In             27     -0.02113     -0.01786     -0.07967 *
 * In             28      0.00294      0.00294      0.04023 *
 * In             29     -0.16202     -0.16203     -0.04215 *
 * In             30     -0.01242     -0.06842     -0.01807 *
 * In             31     -0.06842     -0.01242     -0.01808 *
 * In             32      0.02709      0.02709     -0.10182 *
 *                                                          *
 ************************************************************

 Pseudo atomic calculation performed for P 3s2 3p3

 Converged in 23 iterations to a total energy of -208.0292 eV

 Pseudo atomic calculation performed for In 4d10 5s2 5p1

 Converged in 42 iterations to a total energy of -1747.4501 eV
Charge spilling parameter for spin component 1 = 0.17%
Charge spilling parameter for spin component 2 = 0.17%

                   Orbital Populations                  
  ---------------------------------------------------------------
     Ion    Atom   Orbital              Up        Down      Spin
  ---------------------------------------------------------------
      P     1      S                    0.903     0.904    -0.001
      P     1      Px                   0.645     0.630     0.015
      P     1      Py                   0.645     0.630     0.015
      P     1      Pz                   0.623     0.624    -0.001
      P     2      S                    0.871     0.870     0.001
      P     2      Px                   0.651     0.642     0.009
      P     2      Py                   0.659     0.653     0.007
      P     2      Pz                   0.651     0.649     0.001
      P     3      S                    0.871     0.870     0.001
      P     3      Px                   0.659     0.653     0.007
      P     3      Py                   0.651     0.642     0.009
      P     3      Pz                   0.651     0.649     0.001
      P     4      S                    0.867     0.867     0.000
      P     4      Px                   0.655     0.655     0.000
      P     4      Py                   0.655     0.655     0.000
      P     4      Pz                   0.659     0.659     0.000
      P     5      S                    0.868     0.868    -0.000
      P     5      Px                   0.651     0.652    -0.001
      P     5      Py                   0.651     0.652    -0.001
      P     5      Pz                   0.668     0.668    -0.000
      P     6      S                    0.868     0.868    -0.000
      P     6      Px                   0.651     0.652    -0.001
      P     6      Py                   0.651     0.652    -0.001
      P     6      Pz                   0.668     0.668    -0.000
      P     7      S                    0.867     0.867     0.000
      P     7      Px                   0.655     0.655    -0.000
      P     7      Py                   0.655     0.655    -0.000
      P     7      Pz                   0.659     0.659    -0.000
      P     8      S                    0.870     0.870    -0.000
      P     8      Px                   0.654     0.654    -0.000
      P     8      Py                   0.651     0.651    -0.000
      P     8      Pz                   0.658     0.658    -0.000
      P     9      S                    0.873     0.873    -0.000
      P     9      Px                   0.656     0.656     0.000
      P     9      Py                   0.646     0.646     0.000
      P     9      Pz                   0.654     0.654     0.000
      P    10      S                    0.872     0.872    -0.001
      P    10      Px                   0.658     0.660    -0.001
      P    10      Py                   0.644     0.646    -0.002
      P    10      Pz                   0.653     0.655    -0.002
      P    11      S                    0.872     0.872    -0.000
      P    11      Px                   0.652     0.652    -0.000
      P    11      Py                   0.645     0.646    -0.001
      P    11      Pz                   0.661     0.661    -0.000
      P    12      S                    0.870     0.869     0.000
      P    12      Px                   0.654     0.653     0.001
      P    12      Py                   0.656     0.655     0.001
      P    12      Pz                   0.655     0.654     0.001
      P    13      S                    0.873     0.869     0.004
      P    13      Px                   0.665     0.659     0.006
      P    13      Py                   0.657     0.644     0.013
      P    13      Pz                   0.653     0.640     0.013
      P    14      S                    0.872     0.871     0.002
      P    14      Px                   0.662     0.659     0.003
      P    14      Py                   0.653     0.649     0.004
      P    14      Pz                   0.648     0.643     0.005
      P    15      S                    0.869     0.868     0.001
      P    15      Px                   0.654     0.652     0.002
      P    15      Py                   0.658     0.655     0.004
      P    15      Pz                   0.657     0.653     0.004
      P    16      S                    0.870     0.870    -0.000
      P    16      Px                   0.651     0.651    -0.000
      P    16      Py                   0.654     0.654    -0.000
      P    16      Pz                   0.658     0.658    -0.000
      P    17      S                    0.872     0.872    -0.001
      P    17      Px                   0.644     0.646    -0.002
      P    17      Py                   0.658     0.660    -0.001
      P    17      Pz                   0.653     0.655    -0.002
      P    18      S                    0.873     0.873    -0.000
      P    18      Px                   0.646     0.646     0.000
      P    18      Py                   0.656     0.656     0.000
      P    18      Pz                   0.654     0.654     0.000
      P    19      S                    0.872     0.872    -0.000
      P    19      Px                   0.645     0.646    -0.001
      P    19      Py                   0.652     0.652    -0.000
      P    19      Pz                   0.661     0.661    -0.000
      P    20      S                    0.870     0.869     0.000
      P    20      Px                   0.656     0.655     0.001
      P    20      Py                   0.654     0.653     0.001
      P    20      Pz                   0.655     0.654     0.001
      P    21      S                    0.872     0.871     0.002
      P    21      Px                   0.653     0.649     0.004
      P    21      Py                   0.662     0.659     0.003
      P    21      Pz                   0.648     0.643     0.005
      P    22      S                    0.873     0.869     0.004
      P    22      Px                   0.657     0.644     0.013
      P    22      Py                   0.665     0.659     0.006
      P    22      Pz                   0.653     0.640     0.013
      P    23      S                    0.869     0.868     0.001
      P    23      Px                   0.658     0.655     0.004
      P    23      Py                   0.654     0.652     0.002
      P    23      Pz                   0.657     0.653     0.004
      P    24      S                    0.875     0.872     0.003
      P    24      Px                   0.650     0.639     0.012
      P    24      Py                   0.650     0.639     0.012
      P    24      Pz                   0.667     0.663     0.004
      P    25      S                    0.868     0.868    -0.000
      P    25      Px                   0.658     0.658    -0.000
      P    25      Py                   0.658     0.658    -0.000
      P    25      Pz                   0.652     0.652     0.000
      P    26      S                    0.868     0.868    -0.000
      P    26      Px                   0.658     0.658    -0.000
      P    26      Py                   0.658     0.658    -0.000
      P    26      Pz                   0.652     0.652     0.000
      P    27      S                    0.872     0.871     0.001
      P    27      Px                   0.649     0.644     0.005
      P    27      Py                   0.649     0.644     0.005
      P    27      Pz                   0.664     0.663     0.002
      P    28      S                    0.868     0.868    -0.000
      P    28      Px                   0.658     0.658    -0.000
      P    28      Py                   0.658     0.658    -0.000
      P    28      Pz                   0.654     0.653     0.001
      P    29      S                    0.868     0.868    -0.000
      P    29      Px                   0.655     0.655     0.000
      P    29      Py                   0.655     0.655    -0.000
      P    29      Pz                   0.659     0.659    -0.000
      P    30      S                    0.868     0.868    -0.000
      P    30      Px                   0.655     0.655    -0.000
      P    30      Py                   0.655     0.655     0.000
      P    30      Pz                   0.659     0.659    -0.000
      P    31      S                    0.868     0.868    -0.000
      P    31      Px                   0.658     0.658    -0.000
      P    31      Py                   0.658     0.658    -0.000
      P    31      Pz                   0.654     0.654     0.000
     In     1      Dzz                  1.000     1.000     0.000
     In     1      Dzy                  0.998     0.998    -0.000
     In     1      Dzx                  0.998     0.998    -0.000
     In     1      Dxx-yy               1.000     1.000     0.000
     In     1      Dxy                  0.999     0.999     0.000
     In     1      S                    0.707     0.707     0.001
     In     1      Px                   0.239     0.239     0.000
     In     1      Py                   0.239     0.239     0.000
     In     1      Pz                   0.241     0.241     0.000
     In     1      S                   -0.247    -0.245    -0.002
     In     2      Dzz                  1.000     1.000     0.000
     In     2      Dzy                  0.999     0.999     0.000
     In     2      Dzx                  0.999     0.999     0.000
     In     2      Dxx-yy               1.000     1.000     0.000
     In     2      Dxy                  0.999     0.999     0.000
     In     2      S                    0.707     0.710    -0.004
     In     2      Px                   0.238     0.245    -0.007
     In     2      Py                   0.226     0.223     0.003
     In     2      Pz                   0.235     0.239    -0.004
     In     2      S                   -0.231    -0.232     0.001
     In     3      Dzz                  1.000     1.000     0.000
     In     3      Dzy                  0.999     0.999     0.000
     In     3      Dzx                  0.999     0.999     0.000
     In     3      Dxx-yy               1.000     1.000     0.000
     In     3      Dxy                  0.999     0.999     0.000
     In     3      S                    0.707     0.710    -0.004
     In     3      Px                   0.226     0.223     0.003
     In     3      Py                   0.238     0.245    -0.007
     In     3      Pz                   0.235     0.239    -0.004
     In     3      S                   -0.231    -0.232     0.001
     In     4      Dzz                  1.000     1.000     0.000
     In     4      Dzy                  0.999     0.999     0.000
     In     4      Dzx                  0.999     0.999     0.000
     In     4      Dxx-yy               1.000     1.000     0.000
     In     4      Dxy                  0.998     0.998     0.000
     In     4      S                    0.705     0.705    -0.000
     In     4      Px                   0.244     0.245    -0.000
     In     4      Py                   0.244     0.245    -0.000
     In     4      Pz                   0.229     0.229    -0.000
     In     4      S                   -0.246    -0.244    -0.002
     In     5      Dzz                  1.000     1.000    -0.000
     In     5      Dzy                  0.999     0.999    -0.000
     In     5      Dzx                  0.999     0.999    -0.000
     In     5      Dxx-yy               1.000     1.000    -0.000
     In     5      Dxy                  0.999     0.999    -0.000
     In     5      S                    0.748     0.722     0.026
     In     5      Px                   0.260     0.238     0.022
     In     5      Py                   0.260     0.238     0.022
     In     5      Pz                   0.256     0.245     0.011
     In     5      S                   -0.243    -0.248     0.005
     In     6      Dzz                  1.000     1.000     0.000
     In     6      Dzy                  0.999     0.999     0.000
     In     6      Dzx                  0.998     0.998     0.000
     In     6      Dxx-yy               1.000     1.000    -0.000
     In     6      Dxy                  0.998     0.998     0.000
     In     6      S                    0.709     0.709    -0.000
     In     6      Px                   0.242     0.242     0.000
     In     6      Py                   0.240     0.240    -0.000
     In     6      Pz                   0.237     0.238    -0.001
     In     6      S                   -0.248    -0.251     0.003
     In     7      Dzz                  1.000     1.000     0.000
     In     7      Dzy                  0.998     0.998     0.000
     In     7      Dzx                  0.999     0.999     0.000
     In     7      Dxx-yy               1.000     1.000     0.000
     In     7      Dxy                  0.998     0.998     0.000
     In     7      S                    0.709     0.709    -0.000
     In     7      Px                   0.240     0.240    -0.000
     In     7      Py                   0.242     0.242     0.000
     In     7      Pz                   0.237     0.238    -0.001
     In     7      S                   -0.248    -0.251     0.003
     In     8      Dzz                  0.998     0.998    -0.000
     In     8      Dzy                  0.999     0.999     0.000
     In     8      Dzx                  0.999     0.999    -0.000
     In     8      Dxx-yy               1.000     1.000     0.000
     In     8      Dxy                  0.998     0.998    -0.000
     In     8      S                    0.745     0.746    -0.001
     In     8      Px                   0.225     0.206     0.019
     In     8      Py                   0.225     0.206     0.019
     In     8      Pz                   0.254     0.254     0.000
     In     8      S                   -0.259    -0.254    -0.005
     In     9      Dzz                  0.999     0.999     0.000
     In     9      Dzy                  0.998     0.998     0.000
     In     9      Dzx                  0.998     0.998     0.000
     In     9      Dxx-yy               1.000     0.999     0.000
     In     9      Dxy                  0.998     0.998     0.000
     In     9      S                    0.713     0.712     0.001
     In     9      Px                   0.246     0.245     0.001
     In     9      Py                   0.247     0.246     0.001
     In     9      Pz                   0.239     0.239    -0.000
     In     9      S                   -0.260    -0.260     0.001
     In    10      Dzz                  1.000     1.000     0.000
     In    10      Dzy                  0.999     0.999     0.000
     In    10      Dzx                  0.999     0.999     0.000
     In    10      Dxx-yy               0.999     0.999     0.000
     In    10      Dxy                  0.999     0.999     0.000
     In    10      S                    0.696     0.698    -0.002
     In    10      Px                   0.230     0.233    -0.003
     In    10      Py                   0.242     0.242    -0.000
     In    10      Pz                   0.244     0.247    -0.003
     In    10      S                   -0.226    -0.230     0.004
     In    11      Dzz                  1.000     1.000    -0.000
     In    11      Dzy                  0.999     0.999     0.000
     In    11      Dzx                  0.999     0.999     0.000
     In    11      Dxx-yy               1.000     1.000     0.000
     In    11      Dxy                  0.999     0.999     0.000
     In    11      S                    0.708     0.709    -0.001
     In    11      Px                   0.240     0.241    -0.000
     In    11      Py                   0.240     0.240     0.000
     In    11      Pz                   0.236     0.237    -0.000
     In    11      S                   -0.238    -0.235    -0.003
     In    12      Dzz                  1.000     1.000    -0.000
     In    12      Dzy                  0.999     0.999     0.000
     In    12      Dzx                  0.999     0.999    -0.000
     In    12      Dxx-yy               1.000     1.000    -0.000
     In    12      Dxy                  0.999     0.999    -0.000
     In    12      S                    0.706     0.707    -0.001
     In    12      Px                   0.237     0.238    -0.001
     In    12      Py                   0.238     0.238     0.000
     In    12      Pz                   0.241     0.241    -0.000
     In    12      S                   -0.253    -0.251    -0.002
     In    13      Dzz                  1.000     1.000    -0.000
     In    13      Dzy                  0.998     0.998    -0.000
     In    13      Dzx                  0.998     0.998    -0.000
     In    13      Dxx-yy               1.000     1.000    -0.000
     In    13      Dxy                  0.999     0.999     0.000
     In    13      S                    0.711     0.711     0.000
     In    13      Px                   0.239     0.239     0.000
     In    13      Py                   0.240     0.240     0.000
     In    13      Pz                   0.241     0.241    -0.000
     In    13      S                   -0.256    -0.255    -0.001
     In    14      Dzz                  1.000     1.000     0.000
     In    14      Dzy                  0.999     0.999     0.000
     In    14      Dzx                  0.998     0.998    -0.000
     In    14      Dxx-yy               1.000     1.000     0.000
     In    14      Dxy                  0.998     0.998    -0.000
     In    14      S                    0.708     0.708    -0.000
     In    14      Px                   0.243     0.243     0.001
     In    14      Py                   0.240     0.240    -0.000
     In    14      Pz                   0.237     0.239    -0.001
     In    14      S                   -0.253    -0.255     0.002
     In    15      Dzz                  1.000     1.000     0.000
     In    15      Dzy                  0.999     0.999     0.000
     In    15      Dzx                  0.998     0.998     0.000
     In    15      Dxx-yy               1.000     1.000     0.000
     In    15      Dxy                  0.999     0.998     0.000
     In    15      S                    0.712     0.710     0.002
     In    15      Px                   0.244     0.241     0.003
     In    15      Py                   0.238     0.238     0.000
     In    15      Pz                   0.241     0.241     0.000
     In    15      S                   -0.249    -0.249     0.000
     In    16      Dzz                  1.000     1.000     0.000
     In    16      Dzy                  0.999     0.999     0.000
     In    16      Dzx                  0.999     0.999     0.000
     In    16      Dxx-yy               1.000     1.000    -0.000
     In    16      Dxy                  0.998     0.998     0.000
     In    16      S                    0.711     0.712    -0.000
     In    16      Px                   0.238     0.238    -0.001
     In    16      Py                   0.241     0.242    -0.001
     In    16      Pz                   0.239     0.239    -0.001
     In    16      S                   -0.230    -0.234     0.004
     In    17      Dzz                  0.999     0.999     0.000
     In    17      Dzy                  0.998     0.998     0.000
     In    17      Dzx                  0.998     0.998     0.000
     In    17      Dxx-yy               1.000     0.999     0.000
     In    17      Dxy                  0.998     0.998     0.000
     In    17      S                    0.713     0.712     0.001
     In    17      Px                   0.247     0.246     0.001
     In    17      Py                   0.246     0.245     0.001
     In    17      Pz                   0.239     0.239    -0.000
     In    17      S                   -0.260    -0.260     0.001
     In    18      Dzz                  1.000     1.000    -0.000
     In    18      Dzy                  0.999     0.999    -0.000
     In    18      Dzx                  0.999     0.999     0.000
     In    18      Dxx-yy               1.000     1.000    -0.000
     In    18      Dxy                  0.999     0.999     0.000
     In    18      S                    0.708     0.709    -0.001
     In    18      Px                   0.240     0.240     0.000
     In    18      Py                   0.240     0.241    -0.000
     In    18      Pz                   0.236     0.237    -0.000
     In    18      S                   -0.238    -0.235    -0.003
     In    19      Dzz                  1.000     1.000     0.000
     In    19      Dzy                  0.999     0.999     0.000
     In    19      Dzx                  0.999     0.999     0.000
     In    19      Dxx-yy               0.999     0.999     0.000
     In    19      Dxy                  0.999     0.999     0.000
     In    19      S                    0.696     0.698    -0.002
     In    19      Px                   0.242     0.242    -0.000
     In    19      Py                   0.230     0.233    -0.003
     In    19      Pz                   0.244     0.247    -0.003
     In    19      S                   -0.226    -0.230     0.004
     In    20      Dzz                  1.000     1.000     0.000
     In    20      Dzy                  0.999     0.999    -0.000
     In    20      Dzx                  0.999     0.999     0.000
     In    20      Dxx-yy               1.000     1.000    -0.000
     In    20      Dxy                  0.999     0.999    -0.000
     In    20      S                    0.706     0.707    -0.001
     In    20      Px                   0.238     0.238     0.000
     In    20      Py                   0.237     0.238    -0.001
     In    20      Pz                   0.241     0.241    -0.000
     In    20      S                   -0.253    -0.251    -0.002
     In    21      Dzz                  1.000     1.000    -0.000
     In    21      Dzy                  0.998     0.998    -0.000
     In    21      Dzx                  0.998     0.998     0.000
     In    21      Dxx-yy               1.000     1.000     0.000
     In    21      Dxy                  0.999     0.999     0.000
     In    21      S                    0.711     0.711     0.000
     In    21      Px                   0.240     0.240     0.000
     In    21      Py                   0.239     0.239     0.000
     In    21      Pz                   0.241     0.241    -0.000
     In    21      S                   -0.256    -0.255    -0.001
     In    22      Dzz                  1.000     1.000    -0.000
     In    22      Dzy                  0.998     0.998     0.000
     In    22      Dzx                  0.999     0.999     0.000
     In    22      Dxx-yy               1.000     1.000     0.000
     In    22      Dxy                  0.999     0.998     0.000
     In    22      S                    0.712     0.710     0.002
     In    22      Px                   0.238     0.238     0.000
     In    22      Py                   0.244     0.241     0.003
     In    22      Pz                   0.241     0.241     0.000
     In    22      S                   -0.249    -0.249     0.000
     In    23      Dzz                  1.000     1.000     0.000
     In    23      Dzy                  0.998     0.998     0.000
     In    23      Dzx                  0.999     0.999    -0.000
     In    23      Dxx-yy               1.000     1.000     0.000
     In    23      Dxy                  0.998     0.998    -0.000
     In    23      S                    0.708     0.708    -0.000
     In    23      Px                   0.240     0.240    -0.000
     In    23      Py                   0.243     0.243     0.001
     In    23      Pz                   0.237     0.239    -0.001
     In    23      S                   -0.253    -0.255     0.002
     In    24      Dzz                  1.000     1.000     0.000
     In    24      Dzy                  0.999     0.999     0.000
     In    24      Dzx                  0.999     0.999     0.000
     In    24      Dxx-yy               1.000     1.000    -0.000
     In    24      Dxy                  0.998     0.998     0.000
     In    24      S                    0.711     0.712    -0.000
     In    24      Px                   0.241     0.242    -0.001
     In    24      Py                   0.238     0.238    -0.001
     In    24      Pz                   0.239     0.239    -0.001
     In    24      S                   -0.230    -0.234     0.004
     In    25      Dzz                  1.000     1.000    -0.000
     In    25      Dzy                  0.998     0.998     0.000
     In    25      Dzx                  0.998     0.998     0.000
     In    25      Dxx-yy               1.000     1.000    -0.000
     In    25      Dxy                  0.999     0.999     0.000
     In    25      S                    0.707     0.706     0.001
     In    25      Px                   0.239     0.239     0.000
     In    25      Py                   0.239     0.239     0.000
     In    25      Pz                   0.243     0.243    -0.000
     In    25      S                   -0.249    -0.250     0.001
     In    26      Dzz                  1.000     1.000    -0.000
     In    26      Dzy                  0.999     0.999     0.000
     In    26      Dzx                  0.999     0.999     0.000
     In    26      Dxx-yy               1.000     1.000    -0.000
     In    26      Dxy                  0.999     0.999     0.000
     In    26      S                    0.708     0.709    -0.001
     In    26      Px                   0.241     0.241    -0.001
     In    26      Py                   0.239     0.240    -0.001
     In    26      Pz                   0.235     0.236    -0.001
     In    26      S                   -0.243    -0.244     0.001
     In    27      Dzz                  1.000     1.000    -0.000
     In    27      Dzy                  0.999     0.999     0.000
     In    27      Dzx                  0.999     0.999     0.000
     In    27      Dxx-yy               1.000     1.000    -0.000
     In    27      Dxy                  0.999     0.999     0.000
     In    27      S                    0.708     0.709    -0.001
     In    27      Px                   0.239     0.240    -0.001
     In    27      Py                   0.241     0.241    -0.001
     In    27      Pz                   0.235     0.236    -0.001
     In    27      S                   -0.243    -0.244     0.001
     In    28      Dzz                  1.000     1.000     0.000
     In    28      Dzy                  0.999     0.999     0.000
     In    28      Dzx                  0.999     0.999     0.000
     In    28      Dxx-yy               1.000     1.000     0.000
     In    28      Dxy                  0.998     0.998     0.000
     In    28      S                    0.705     0.705     0.000
     In    28      Px                   0.240     0.240     0.000
     In    28      Py                   0.240     0.240     0.000
     In    28      Pz                   0.242     0.242     0.000
     In    28      S                   -0.257    -0.256    -0.001
     In    29      Dzz                  1.000     1.000    -0.000
     In    29      Dzy                  0.999     0.999    -0.000
     In    29      Dzx                  0.999     0.999    -0.000
     In    29      Dxx-yy               1.000     1.000    -0.000
     In    29      Dxy                  0.999     0.999    -0.000
     In    29      S                    0.779     0.697     0.082
     In    29      Px                   0.276     0.210     0.066
     In    29      Py                   0.276     0.210     0.066
     In    29      Pz                   0.274     0.209     0.065
     In    29      S                   -0.243    -0.248     0.005
     In    30      Dzz                  1.000     1.000     0.000
     In    30      Dzy                  0.998     0.998     0.000
     In    30      Dzx                  0.999     0.999    -0.000
     In    30      Dxx-yy               1.000     1.000     0.000
     In    30      Dxy                  0.999     0.998     0.000
     In    30      S                    0.712     0.707     0.005
     In    30      Px                   0.238     0.238     0.000
     In    30      Py                   0.246     0.239     0.007
     In    30      Pz                   0.241     0.241     0.001
     In    30      S                   -0.246    -0.248     0.002
     In    31      Dzz                  1.000     1.000     0.000
     In    31      Dzy                  0.999     0.999    -0.000
     In    31      Dzx                  0.998     0.998     0.000
     In    31      Dxx-yy               1.000     1.000     0.000
     In    31      Dxy                  0.999     0.998     0.000
     In    31      S                    0.712     0.707     0.005
     In    31      Px                   0.246     0.239     0.007
     In    31      Py                   0.238     0.238     0.000
     In    31      Pz                   0.241     0.241     0.001
     In    31      S                   -0.246    -0.248     0.002
     In    32      Dzz                  1.000     1.000     0.000
     In    32      Dzy                  0.998     0.998     0.000
     In    32      Dzx                  0.998     0.998     0.000
     In    32      Dxx-yy               1.000     1.000     0.000
     In    32      Dxy                  0.999     0.999    -0.000
     In    32      S                    0.717     0.712     0.005
     In    32      Px                   0.239     0.239     0.000
     In    32      Py                   0.239     0.239     0.000
     In    32      Pz                   0.248     0.241     0.008
     In    32      S                   -0.241    -0.243     0.002
  ---------------------------------------------------------------
                           Total:     285.816   285.184     0.632
  ---------------------------------------------------------------

     Atomic Populations (Mulliken)
     -----------------------------
Species          Ion Spin      s       p       d       f      Total   Charge(e)   Spin(hbar/2)
==============================================================================================
  P               1   up:     0.903   1.913   0.000   0.000   2.816    -0.603        0.029
                  1   dn:     0.904   1.883   0.000   0.000   2.787
  P               2   up:     0.871   1.962   0.000   0.000   2.832    -0.647        0.018
                  2   dn:     0.870   1.945   0.000   0.000   2.814
  P               3   up:     0.871   1.962   0.000   0.000   2.832    -0.647        0.018
                  3   dn:     0.870   1.945   0.000   0.000   2.814
  P               4   up:     0.867   1.969   0.000   0.000   2.837    -0.673        0.001
                  4   dn:     0.867   1.969   0.000   0.000   2.836
  P               5   up:     0.868   1.970   0.000   0.000   2.838    -0.677       -0.001
                  5   dn:     0.868   1.971   0.000   0.000   2.839
  P               6   up:     0.868   1.970   0.000   0.000   2.838    -0.677       -0.001
                  6   dn:     0.868   1.971   0.000   0.000   2.839
  P               7   up:     0.867   1.969   0.000   0.000   2.837    -0.673       -0.000
                  7   dn:     0.867   1.969   0.000   0.000   2.837
  P               8   up:     0.870   1.964   0.000   0.000   2.833    -0.667       -0.001
                  8   dn:     0.870   1.964   0.000   0.000   2.834
  P               9   up:     0.873   1.956   0.000   0.000   2.828    -0.657        0.000
                  9   dn:     0.873   1.956   0.000   0.000   2.828
  P              10   up:     0.872   1.955   0.000   0.000   2.827    -0.659       -0.005
                 10   dn:     0.872   1.960   0.000   0.000   2.832
  P              11   up:     0.872   1.958   0.000   0.000   2.830    -0.661       -0.001
                 11   dn:     0.872   1.960   0.000   0.000   2.831
  P              12   up:     0.870   1.965   0.000   0.000   2.835    -0.666        0.004
                 12   dn:     0.869   1.962   0.000   0.000   2.831
  P              13   up:     0.873   1.975   0.000   0.000   2.848    -0.660        0.035
                 13   dn:     0.869   1.943   0.000   0.000   2.813
  P              14   up:     0.872   1.963   0.000   0.000   2.835    -0.657        0.013
                 14   dn:     0.871   1.951   0.000   0.000   2.822
  P              15   up:     0.869   1.970   0.000   0.000   2.840    -0.668        0.011
                 15   dn:     0.868   1.960   0.000   0.000   2.829
  P              16   up:     0.870   1.964   0.000   0.000   2.833    -0.667       -0.001
                 16   dn:     0.870   1.964   0.000   0.000   2.834
  P              17   up:     0.872   1.955   0.000   0.000   2.827    -0.659       -0.005
                 17   dn:     0.872   1.960   0.000   0.000   2.832
  P              18   up:     0.873   1.956   0.000   0.000   2.828    -0.657        0.000
                 18   dn:     0.873   1.956   0.000   0.000   2.828
  P              19   up:     0.872   1.958   0.000   0.000   2.830    -0.661       -0.001
                 19   dn:     0.872   1.960   0.000   0.000   2.831
  P              20   up:     0.870   1.965   0.000   0.000   2.835    -0.666        0.004
                 20   dn:     0.869   1.962   0.000   0.000   2.831
  P              21   up:     0.872   1.963   0.000   0.000   2.835    -0.657        0.013
                 21   dn:     0.871   1.951   0.000   0.000   2.822
  P              22   up:     0.873   1.975   0.000   0.000   2.848    -0.660        0.035
                 22   dn:     0.869   1.943   0.000   0.000   2.813
  P              23   up:     0.869   1.970   0.000   0.000   2.840    -0.668        0.011
                 23   dn:     0.868   1.960   0.000   0.000   2.829
  P              24   up:     0.875   1.968   0.000   0.000   2.842    -0.655        0.030
                 24   dn:     0.872   1.941   0.000   0.000   2.812
  P              25   up:     0.868   1.967   0.000   0.000   2.836    -0.671       -0.000
                 25   dn:     0.868   1.967   0.000   0.000   2.836
  P              26   up:     0.868   1.967   0.000   0.000   2.836    -0.671       -0.000
                 26   dn:     0.868   1.967   0.000   0.000   2.836
  P              27   up:     0.872   1.963   0.000   0.000   2.835    -0.657        0.013
                 27   dn:     0.871   1.951   0.000   0.000   2.822
  P              28   up:     0.868   1.969   0.000   0.000   2.837    -0.673        0.000
                 28   dn:     0.868   1.969   0.000   0.000   2.837
  P              29   up:     0.868   1.969   0.000   0.000   2.837    -0.673       -0.000
                 29   dn:     0.868   1.969   0.000   0.000   2.837
  P              30   up:     0.868   1.969   0.000   0.000   2.837    -0.673       -0.000
                 30   dn:     0.868   1.969   0.000   0.000   2.837
  P              31   up:     0.868   1.969   0.000   0.000   2.837    -0.673       -0.000
                 31   dn:     0.868   1.969   0.000   0.000   2.837
  In              1   up:     0.460   0.720   4.995   0.000   6.175     0.649       -0.001
                  1   dn:     0.462   0.719   4.995   0.000   6.176
  In              2   up:     0.476   0.698   4.996   0.000   6.170     0.648       -0.011
                  2   dn:     0.478   0.707   4.996   0.000   6.181
  In              3   up:     0.476   0.698   4.996   0.000   6.170     0.648       -0.011
                  3   dn:     0.478   0.707   4.996   0.000   6.181
  In              4   up:     0.458   0.717   4.995   0.000   6.170     0.657       -0.003
                  4   dn:     0.461   0.718   4.995   0.000   6.173
  In              5   up:     0.505   0.776   4.996   0.000   6.277     0.534        0.087
                  5   dn:     0.474   0.720   4.996   0.000   6.190
  In              6   up:     0.461   0.719   4.995   0.000   6.174     0.653        0.002
                  6   dn:     0.458   0.720   4.995   0.000   6.173
  In              7   up:     0.461   0.719   4.995   0.000   6.174     0.653        0.002
                  7   dn:     0.458   0.720   4.995   0.000   6.173
  In              8   up:     0.486   0.703   4.993   0.000   6.182     0.668        0.032
                  8   dn:     0.491   0.665   4.994   0.000   6.150
  In              9   up:     0.453   0.732   4.994   0.000   6.179     0.646        0.003
                  9   dn:     0.452   0.730   4.994   0.000   6.175
  In             10   up:     0.469   0.716   4.995   0.000   6.180     0.634       -0.005
                 10   dn:     0.467   0.723   4.995   0.000   6.185
  In             11   up:     0.470   0.717   4.995   0.000   6.181     0.633       -0.004
                 11   dn:     0.473   0.718   4.995   0.000   6.186
  In             12   up:     0.452   0.716   4.995   0.000   6.164     0.668       -0.004
                 12   dn:     0.456   0.717   4.995   0.000   6.168
  In             13   up:     0.455   0.720   4.995   0.000   6.169     0.661       -0.001
                 13   dn:     0.456   0.720   4.995   0.000   6.170
  In             14   up:     0.455   0.721   4.995   0.000   6.170     0.660        0.001
                 14   dn:     0.454   0.721   4.995   0.000   6.170
  In             15   up:     0.463   0.723   4.995   0.000   6.180     0.646        0.006
                 15   dn:     0.461   0.719   4.995   0.000   6.174
  In             16   up:     0.481   0.717   4.995   0.000   6.192     0.617        0.001
                 16   dn:     0.477   0.719   4.995   0.000   6.191
  In             17   up:     0.453   0.732   4.994   0.000   6.179     0.646        0.003
                 17   dn:     0.452   0.730   4.994   0.000   6.175
  In             18   up:     0.470   0.717   4.995   0.000   6.181     0.633       -0.004
                 18   dn:     0.473   0.718   4.995   0.000   6.186
  In             19   up:     0.469   0.716   4.995   0.000   6.180     0.634       -0.005
                 19   dn:     0.467   0.723   4.995   0.000   6.185
  In             20   up:     0.452   0.716   4.995   0.000   6.164     0.668       -0.004
                 20   dn:     0.456   0.717   4.995   0.000   6.168
  In             21   up:     0.455   0.720   4.995   0.000   6.169     0.661       -0.001
                 21   dn:     0.456   0.720   4.995   0.000   6.170
  In             22   up:     0.463   0.723   4.995   0.000   6.180     0.646        0.006
                 22   dn:     0.461   0.719   4.995   0.000   6.174
  In             23   up:     0.455   0.721   4.995   0.000   6.170     0.660        0.001
                 23   dn:     0.454   0.721   4.995   0.000   6.170
  In             24   up:     0.481   0.717   4.995   0.000   6.192     0.617        0.001
                 24   dn:     0.477   0.719   4.995   0.000   6.191
  In             25   up:     0.458   0.722   4.995   0.000   6.174     0.653        0.002
                 25   dn:     0.456   0.722   4.995   0.000   6.172
  In             26   up:     0.466   0.715   4.995   0.000   6.176     0.647       -0.002
                 26   dn:     0.465   0.718   4.995   0.000   6.178
  In             27   up:     0.466   0.715   4.995   0.000   6.176     0.647       -0.002
                 27   dn:     0.465   0.718   4.995   0.000   6.178
  In             28   up:     0.448   0.722   4.995   0.000   6.165     0.670       -0.000
                 28   dn:     0.449   0.721   4.995   0.000   6.165
  In             29   up:     0.536   0.826   4.995   0.000   6.357     0.570        0.284
                 29   dn:     0.448   0.629   4.996   0.000   6.073
  In             30   up:     0.466   0.725   4.995   0.000   6.186     0.643        0.015
                 30   dn:     0.459   0.717   4.995   0.000   6.171
  In             31   up:     0.466   0.725   4.995   0.000   6.186     0.643        0.015
                 31   dn:     0.459   0.717   4.995   0.000   6.171
  In             32   up:     0.476   0.726   4.995   0.000   6.197     0.622        0.016
                 32   dn:     0.469   0.718   4.994   0.000   6.181
==============================================================================================

                 Bond                   Population        Spin       Length (A)
================================================================================
              P 1  -- In 8                   0.84        -0.01          2.45255
              P 5  -- In 8                   0.73        -0.00          2.49313
              P 6  -- In 8                   0.73        -0.00          2.49313
              P 3  -- In 9                   0.66        -0.00          2.51501
              P 2  -- In 17                  0.66        -0.00          2.51501
              P 23 -- In 9                   0.64        -0.00          2.54370
              P 15 -- In 17                  0.64        -0.00          2.54370
              P 14 -- In 16                  0.65        -0.00          2.54549
              P 21 -- In 24                  0.65        -0.00          2.54549
              P 12 -- In 9                   0.65        -0.00          2.54605
              P 20 -- In 17                  0.65        -0.00          2.54605
              P 12 -- In 14                  0.67         0.00          2.54615
              P 20 -- In 23                  0.67         0.00          2.54615
              P 16 -- In 21                  0.67         0.00          2.54659
              P 8  -- In 13                  0.67         0.00          2.54659
              P 13 -- In 16                  0.65        -0.00          2.54716
              P 22 -- In 24                  0.65        -0.00          2.54716
              P 19 -- In 13                  0.65         0.00          2.54907
              P 11 -- In 21                  0.65         0.00          2.54907
              P 21 -- In 7                   0.66        -0.00          2.54917
              P 14 -- In 6                   0.66        -0.00          2.54917
              P 3  -- In 3                   0.64        -0.00          2.55053
              P 2  -- In 2                   0.64        -0.00          2.55053
              P 29 -- In 32                  0.65        -0.00          2.55090
              P 30 -- In 32                  0.65        -0.00          2.55090
              P 15 -- In 6                   0.66        -0.00          2.55091
              P 23 -- In 7                   0.66        -0.00          2.55091
              P 22 -- In 23                  0.66         0.00          2.55112
              P 13 -- In 14                  0.66         0.00          2.55112
              P 4  -- In 6                   0.67        -0.00          2.55186
              P 4  -- In 7                   0.67        -0.00          2.55186
              P 31 -- In 22                  0.66        -0.00          2.55200
              P 31 -- In 15                  0.66        -0.00          2.55200
              P 28 -- In 31                  0.66        -0.00          2.55214
              P 28 -- In 30                  0.66        -0.00          2.55214
              P 7  -- In 23                  0.67         0.00          2.55220
              P 7  -- In 14                  0.67         0.00          2.55220
              P 4  -- In 4                   0.66        -0.00          2.55270
              P 7  -- In 4                   0.66         0.00          2.55372
              P 26 -- In 28                  0.65         0.00          2.55379
              P 25 -- In 28                  0.65         0.00          2.55379
              P 30 -- In 21                  0.66         0.00          2.55461
              P 29 -- In 13                  0.66         0.00          2.55461
              P 15 -- In 31                  0.63        -0.01          2.55488
              P 23 -- In 30                  0.63        -0.01          2.55488
              P 17 -- In 1                   0.65        -0.00          2.55628
              P 10 -- In 1                   0.65        -0.00          2.55628
              P 27 -- In 18                  0.66         0.00          2.55704
              P 27 -- In 11                  0.66         0.00          2.55704
              P 26 -- In 17                  0.66        -0.00          2.55734
              P 25 -- In 9                   0.66        -0.00          2.55734
              P 24 -- In 27                  0.65         0.00          2.55817
              P 24 -- In 26                  0.65         0.00          2.55817
              P 29 -- In 30                  0.66        -0.00          2.55817
              P 30 -- In 31                  0.66        -0.00          2.55817
              P 28 -- In 28                  0.65         0.00          2.55841
              P 29 -- In 15                  0.65         0.00          2.55850
              P 30 -- In 22                  0.65         0.00          2.55851
              P 20 -- In 22                  0.62        -0.00          2.55885
              P 12 -- In 15                  0.62        -0.00          2.55886
              P 31 -- In 28                  0.66         0.00          2.55947
              P 31 -- In 1                   0.65        -0.00          2.56024
              P 28 -- In 25                  0.65        -0.00          2.56032
              P 3  -- In 4                   0.65         0.00          2.56073
              P 2  -- In 4                   0.65         0.00          2.56073
              P 6  -- In 14                  0.61         0.00          2.56092
              P 5  -- In 23                  0.61         0.00          2.56092
              P 4  -- In 1                   0.64        -0.00          2.56096
              P 25 -- In 11                  0.64         0.00          2.56161
              P 26 -- In 18                  0.64         0.00          2.56161
              P 7  -- In 25                  0.64        -0.00          2.56166
              P 3  -- In 10                  0.57        -0.00          2.56181
              P 2  -- In 19                  0.57        -0.00          2.56181
              P 17 -- In 18                  0.65         0.00          2.56198
              P 10 -- In 11                  0.65         0.00          2.56198
              P 18 -- In 25                  0.65        -0.00          2.56227
              P 9  -- In 25                  0.65        -0.00          2.56227
              P 27 -- In 32                  0.63        -0.01          2.56244
              P 14 -- In 15                  0.64        -0.00          2.56249
              P 21 -- In 22                  0.64        -0.00          2.56249
              P 5  -- In 6                   0.61         0.00          2.56276
              P 6  -- In 7                   0.61         0.00          2.56276
              P 26 -- In 27                  0.66         0.00          2.56284
              P 25 -- In 26                  0.66         0.00          2.56284
              P 5  -- In 21                  0.64         0.00          2.56436
              P 6  -- In 13                  0.64         0.00          2.56436
              P 16 -- In 19                  0.66         0.00          2.56554
              P 8  -- In 10                  0.66         0.00          2.56554
              P 22 -- In 30                  0.63         0.00          2.56595
              P 13 -- In 31                  0.63         0.00          2.56595
              P 19 -- In 24                  0.64         0.00          2.56763
              P 11 -- In 16                  0.64         0.00          2.56763
              P 24 -- In 32                  0.61         0.00          2.56777
              P 16 -- In 24                  0.64        -0.00          2.56868
              P 8  -- In 16                  0.64        -0.00          2.56868
              P 20 -- In 20                  0.65         0.00          2.56923
              P 12 -- In 12                  0.65         0.00          2.56923
              P 18 -- In 26                  0.65        -0.00          2.57055
              P 9  -- In 27                  0.65        -0.00          2.57055
              P 17 -- In 20                  0.63         0.00          2.57329
              P 10 -- In 12                  0.63         0.00          2.57329
              P 23 -- In 20                  0.65         0.00          2.57329
              P 15 -- In 12                  0.65         0.00          2.57329
              P 11 -- In 2                   0.67         0.00          2.57335
              P 19 -- In 3                   0.67         0.00          2.57335
              P 24 -- In 29                  0.62        -0.02          2.57587
              P 8  -- In 11                  0.64         0.00          2.58091
              P 16 -- In 18                  0.64         0.00          2.58091
              P 10 -- In 2                   0.65         0.00          2.58186
              P 17 -- In 3                   0.65         0.00          2.58187
              P 9  -- In 12                  0.64         0.00          2.58271
              P 18 -- In 20                  0.64         0.00          2.58271
              P 19 -- In 26                  0.62         0.00          2.58313
              P 11 -- In 27                  0.62         0.00          2.58313
              P 13 -- In 29                  0.62        -0.02          2.58380
              P 22 -- In 29                  0.62        -0.02          2.58380
              P 27 -- In 5                   0.61        -0.00          2.58801
              P 9  -- In 10                  0.64         0.00          2.59890
              P 18 -- In 19                  0.64         0.00          2.59890
              P 21 -- In 5                   0.60        -0.01          2.60422
              P 14 -- In 5                   0.60        -0.01          2.60422
              P 1  -- In 19                  0.53         0.00          2.66412
              P 1  -- In 10                  0.53         0.00          2.66412
================================================================================

 Hirshfeld supercell size:           2           2           2
Standard grid dimensions: 240 240 240
Fine grid dimensions:     240 240 240


     Hirshfeld Analysis
     ------------------
Species   Ion     Hirshfeld Charge (e)  Spin (hbar/2)
===================================================
  P        1                -0.25        0.04
  P        2                -0.24        0.01
  P        3                -0.24        0.01
  P        4                -0.24        0.00
  P        5                -0.24        0.00
  P        6                -0.24        0.00
  P        7                -0.24        0.00
  P        8                -0.24       -0.00
  P        9                -0.24        0.00
  P       10                -0.24       -0.00
  P       11                -0.23       -0.00
  P       12                -0.24        0.00
  P       13                -0.24        0.04
  P       14                -0.24        0.01
  P       15                -0.24        0.01
  P       16                -0.24       -0.00
  P       17                -0.24       -0.00
  P       18                -0.24        0.00
  P       19                -0.23       -0.00
  P       20                -0.24        0.00
  P       21                -0.24        0.01
  P       22                -0.24        0.04
  P       23                -0.24        0.01
  P       24                -0.24        0.04
  P       25                -0.24       -0.00
  P       26                -0.24       -0.00
  P       27                -0.24        0.01
  P       28                -0.24        0.00
  P       29                -0.24        0.00
  P       30                -0.24        0.00
  P       31                -0.24        0.00
  In       1                 0.24        0.00
  In       2                 0.23       -0.00
  In       3                 0.23       -0.00
  In       4                 0.24        0.00
  In       5                 0.12        0.06
  In       6                 0.24        0.00
  In       7                 0.24        0.00
  In       8                 0.26        0.03
  In       9                 0.23        0.00
  In      10                 0.23        0.01
  In      11                 0.24        0.00
  In      12                 0.24       -0.00
  In      13                 0.24        0.00
  In      14                 0.24        0.00
  In      15                 0.24        0.00
  In      16                 0.23        0.00
  In      17                 0.23        0.00
  In      18                 0.24        0.00
  In      19                 0.23        0.01
  In      20                 0.24       -0.00
  In      21                 0.24        0.00
  In      22                 0.24        0.00
  In      23                 0.24        0.00
  In      24                 0.23        0.00
  In      25                 0.24        0.00
  In      26                 0.24        0.00
  In      27                 0.24        0.00
  In      28                 0.24        0.00
  In      29                 0.16        0.21
  In      30                 0.23        0.01
  In      31                 0.23        0.01
  In      32                 0.23        0.01
===================================================

 
 A BibTeX formatted list of references used in this run has been written to 
 P_Vacancy_Migration_0->3_Singlepoints_4.bib
 
Initialisation time =     30.07 s
Calculation time    =   8502.09 s
Finalisation time   =    151.21 s
Total time          =   8683.36 s
Peak Memory Use     = 9584080 kB
 
Overall parallel efficiency rating: Terrible (33%)
 
Data was distributed by:-
G-vector (3-way); efficiency rating: Poor (37%)
k-point (36-way); efficiency rating: Good (76%)
