 +-------------------------------------------------+
 |                                                 |
 |      CCC   AA    SSS  TTTTT  EEEEE  PPPP        |
 |     C     A  A  S       T    E      P   P       |
 |     C     AAAA   SS     T    EEE    PPPP        |
 |     C     A  A     S    T    E      P           |
 |      CCC  A  A  SSS     T    EEEEE  P           |
 |                                                 |
 +-------------------------------------------------+
 |                                                 |
 | Welcome to Academic Release CASTEP version 24.1 |
 | Ab Initio Total Energy Program                  |
 |                                                 |
 | Authors:                                        |
 | M. Segall, M. Probert, C. Pickard, P. Hasnip,   |
 | S. Clark, K. Refson, J. R. Yates,               |
 | A. Bartok-Partay, M. Payne                      |
 |                                                 |
 | Contributors:                                   |
 | P. Lindan, P. Haynes, J. White, V. Milman,      |
 | N. Govind, M. Gibson, P. Tulip, V. Cocula,      |
 | B. Montanari, D. Quigley, M. Glover,            |
 | L. Bernasconi, A. Perlov, M. Plummer,           |
 | E. McNellis, J. Meyer, J. Gale, D. Jochym       |
 | J. Aarons, B. Walker, R. Gillen, D. Jones       |
 | T. Green, I. J. Bush, C. J. Armstrong,          |
 | E. J. Higgins, E. L. Brown, M. S. McFly,        |
 | J. Wilkins, B-C. Shih, P. J. P. Byrne,          |
 | R. J. Maurer, J. C. Womack, J. Dziedzic,        |
 | L. LeBlanc, T. K. Stenczel, J. Kermode,         |
 | S. Sturniolo, B. Shi, B. Durham, M. Evans,      |
 | M. J. Smith, A. Tamerus, Z. Hawkhead,           |
 | V. Ravindran, T. Hollins, S. A. Joyce,          |
 | R. T. Strong, A. M. Reilly, S. J. Donaldson     |
 |                                                 |
 | Copyright (c) 2000 - 2023                       |
 |                                                 |
 |     Distributed under license from Cambridge    |
 |     Enterprise for academic use only.           |
 |                                                 |
 | Please cite                                     |
 |                                                 |
 |     "First principles methods using CASTEP"     |
 |                                                 |
 |         Zeitschrift fuer Kristallographie       |
 |           220(5-6) pp. 567-570 (2005)           |
 |                                                 |
 | S. J. Clark, M. D. Segall, C. J. Pickard,       |
 | P. J. Hasnip, M. J. Probert, K. Refson,         |
 | M. C. Payne                                     |
 |                                                 |
 |       in all publications arising from          |
 |              your use of CASTEP                 |
 |                                                 |
 +-------------------------------------------------+
 |                                                 |
 |              http://www.castep.org              |
 |                                                 |
 +-------------------------------------------------+



 Compiled for  GNU 11.2.0 on 04-04-2024 18:39:17
 from code version 6355fd106 Castep241_branch Thu Mar 7 17:56:19 2024 +0000
 Compiler: GNU Fortran 11.2.0; Optimisation: FAST
 Comms   : MPI VERSION : CRAY MPICH version 8.1.23.14 (ANL base 3.4a2)
 MATHLIBS: default (LAPACK version 3.10.1)
 FFT Lib : fftw3 version commercial-fftw-3.3.10-sse2-avx-avx2-avx2_128
 Fundamental constants values: CODATA 2018

 Run started: Tue, 29 Apr 2025 16:19:54 +0100

 Atomic calculation performed for P: 1s2 2s2 2p6 3s2 3p3

 Converged in 47 iterations to an ae energy of -9309.074 eV

   ============================================================                
   | Pseudopotential Report - Date of generation 29-04-2025   |                
   ------------------------------------------------------------                
   | Element: P Ionic charge:  5.00 Level of theory: RSCAN    |                
   | Atomic Solver: Koelling-Harmon                           |                
   |                                                          |                
   |               Reference Electronic Structure             |                
   |         Orbital         Occupation         Energy        |                
   |            3s              2.000           -0.535        |                
   |            3p              3.000           -0.209        |                
   |                                                          |                
   |                 Pseudopotential Definition               |                
   |        Beta     l      e      Rc     scheme   norm       |                
   |          1      0   -0.535   1.807     qc      0         |                
   |          2      0    0.250   1.807     qc      0         |                
   |          3      1   -0.209   1.807     qc      0         |                
   |          4      1    0.250   1.807     qc      0         |                
   |          5      2    0.000   1.807     qc      0         |                
   |          6      2    0.250   1.807     qc      0         |                
   |         loc     3    0.000   1.807     pn      0         |                
   |                                                          |                
   | Augmentation charge Rinner = 1.263                       |                
   | Partial core correction Rc = 1.263                       |                
   ------------------------------------------------------------                
   | "3|1.8|4|4|5|30:31:32"                                   |                
   ------------------------------------------------------------                
   |      Author: Chris J. Pickard, Cambridge University      |                
   ============================================================                
 Warning: otfg_output_psp cannot write out meta-GGA pseudopotentials presently.

 Atomic calculation performed for In:
 1s2 2s2 2p6 3s2 3p6 3d10 4s2 4p6 4d10 5s2 5p1

 Converged in 84 iterations to an ae energy of -160093.328 eV

   ============================================================                
   | Pseudopotential Report - Date of generation 29-04-2025   |                
   ------------------------------------------------------------                
   | Element: In Ionic charge: 13.00 Level of theory: RSCAN   |                
   | Atomic Solver: Koelling-Harmon                           |                
   |                                                          |                
   |               Reference Electronic Structure             |                
   |         Orbital         Occupation         Energy        |                
   |            4d             10.000           -0.711        |                
   |            5s              2.000           -0.313        |                
   |            5p              1.000           -0.095        |                
   |                                                          |                
   |                 Pseudopotential Definition               |                
   |        Beta     l      e      Rc     scheme   norm       |                
   |          1      0   -0.313   2.501     qc      0         |                
   |          2      0    0.250   2.501     qc      0         |                
   |          3      1   -0.095   2.501     qc      0         |                
   |          4      1    0.250   2.501     qc      0         |                
   |          5      2   -0.711   2.207     qc      0         |                
   |          6      2    0.250   2.207     qc      0         |                
   |         loc     3    0.000   2.501     pn      0         |                
   |                                                          |                
   | Augmentation charge Rinner = 1.504                       |                
   | Partial core correction Rc = 1.504                       |                
   ------------------------------------------------------------                
   | "3|2.5|2.5|1.5|7|8|9|50:51:42U2.2U2.2"                   |                
   ------------------------------------------------------------                
   |      Author: Chris J. Pickard, Cambridge University      |                
   ============================================================                
 Warning: otfg_output_psp cannot write out meta-GGA pseudopotentials presently.

 Pseudo atomic calculation performed for P 3s2 3p3

 Converged in 23 iterations to a total energy of -208.0292 eV

 Pseudo atomic calculation performed for In 4d10 5s2 5p1

 Converged in 42 iterations to a total energy of -1747.4501 eV
 Calculation parallelised over 108 processes.
 Data is distributed by G-vector(3-way) and k-point(36-way)
 Each process may use up to 16 threads.

 ************************************ Title ************************************
 

 ***************************** General Parameters ******************************
  
 output verbosity                               : normal  (1)
 write checkpoint data to                       : P_Vacancy_Migration_5->3_Singlepoints_0.check
 type of calculation                            : single point energy
 stress calculation                             : off
 density difference calculation                 : off
 electron localisation func (ELF) calculation   : off
 Hirshfeld analysis                             : on
 polarisation (Berry phase) analysis            : off
 molecular orbital projected DOS                : off
 deltaSCF calculation                           : off
 unlimited duration calculation
 timing information                             : on
 memory usage estimate                          : on
 write extra output files                       : on
 write final potential to formatted file        : off
 write final density to formatted file          : off
 write BibTeX reference list                    : on
 write OTFG pseudopotential files               : on
 write electrostatic potential file             : on
 write bands file                               : on
 checkpoint writing                             : off
  
 output         length unit                     : A
 output           mass unit                     : amu
 output           time unit                     : ps
 output         charge unit                     : e
 output           spin unit                     : hbar/2
 output         energy unit                     : eV
 output          force unit                     : eV/A
 output       velocity unit                     : A/ps
 output       pressure unit                     : GPa
 output     inv_length unit                     : 1/A
 output      frequency unit                     : cm-1
 output force constant unit                     : eV/A**2
 output         volume unit                     : A**3
 output   IR intensity unit                     : (D/A)**2/amu
 output         dipole unit                     : D
 output         efield unit                     : eV/A/e
 output        entropy unit                     : J/mol/K
 output    efield chi2 unit                     : pm/V
  
 wavefunctions paging                           : none
 random number generator seed                   :  161954774
 data distribution                              : optimal for this architecture
 optimization strategy                          : balance speed and memory

 *********************** Exchange-Correlation Parameters ***********************
  
 using functional                               : RSCAN
 relativistic treatment                         : Koelling-Harmon
 DFT+D: Semi-empirical dispersion correction    : off

 ************************* Pseudopotential Parameters **************************
  
 pseudopotential representation                 : reciprocal space
 <beta|phi> representation                      : reciprocal space
 spin-orbit coupling                            : off

 **************************** Basis Set Parameters *****************************
  
 plane wave basis set cut-off                   :   900.0000   eV
 size of standard grid                          :     2.0000
 size of   fine   gmax                          :    30.7390   1/A
 finite basis set correction                    : none

 **************************** Electronic Parameters ****************************
  
 number of  electrons                           :  571.0    
 net charge of system                           :  0.000    
 net spin   of system                           :  1.000    
 number of  up  spins                           :  286.0    
 number of down spins                           :  285.0    
 treating system as spin-polarized
 number of bands                                :        343

 ********************* Electronic Minimization Parameters **********************
  
 Method: Treating system as metallic with density mixing treatment of electrons,
         and number of  SD  steps               :          1
         and number of  CG  steps               :          4
  
 total energy / atom convergence tol.           : 0.1000E-07   eV
 eigen-energy convergence tolerance             : 0.2203E-08   eV
 max force / atom convergence tol.              : ignored
 convergence tolerance window                   :          3   cycles
 max. number of SCF cycles                      :        100
 number of fixed-spin iterations                :         10
 smearing scheme                                : Gaussian
 smearing width                                 : 0.2000       eV
 Fermi energy convergence tolerance             : 0.2721E-13   eV
 periodic dipole correction                     : NONE

 ************************** Density Mixing Parameters **************************
  
 density-mixing scheme                          : Pulay
 max. length of mixing history                  :         20
 charge density mixing amplitude                : 0.5000    
   spin density mixing amplitude                :  2.000    
 cut-off energy for mixing                      :  900.0       eV

 *********************** Population Analysis Parameters ************************
  
 Population analysis with cutoff                :  3.000       A
 Population analysis output                     : summary and pdos components

 *******************************************************************************
  

                           -------------------------------
                                      Unit Cell
                           -------------------------------
        Real Lattice(A)                      Reciprocal Lattice(1/A)
    11.8016820    -0.0000080    -0.0000080        0.532397442   0.000000361   0.000000361
    -0.0000080    11.8016820    -0.0000080        0.000000361   0.532397442   0.000000361
    -0.0000080    -0.0000080    11.8016820        0.000000361   0.000000361   0.532397442

                       Lattice parameters(A)       Cell Angles
                    a =     11.801682          alpha =   90.000078
                    b =     11.801682          beta  =   90.000078
                    c =     11.801682          gamma =   90.000078

                       Current cell volume =          1643.734705       A**3
                                   density =             2.819410   AMU/A**3
                                           =             4.681741     g/cm^3

                           -------------------------------
                                     Cell Contents
                           -------------------------------
                         Total number of ions in cell =   63
                      Total number of species in cell =    2
                        Max number of any one species =   32

            xxxxxxxxxxxxxxxxxxxxxxxxxxxxxxxxxxxxxxxxxxxxxxxxxxxxxxxxxxxx
            x  Element    Atom        Fractional coordinates of atoms  x
            x            Number           u          v          w      x
            x----------------------------------------------------------x
            x  P            1         0.128081   0.128081   0.375068   x 
            x  P            2         0.375068   0.128081   0.128081   x 
            x  P            3         0.128081   0.375068   0.128081   x 
            x  P            4         0.125070   0.125070   0.874666   x 
            x  P            5         0.374932   0.128081   0.621919   x 
            x  P            6         0.128081   0.374932   0.621919   x 
            x  P            7         0.375000   0.375000   0.875000   x 
            x  P            8         0.128081   0.621919   0.374932   x 
            x  P            9         0.374932   0.621919   0.128081   x 
            x  P           10         0.125070   0.874666   0.125070   x 
            x  P           11         0.375000   0.875000   0.375000   x 
            x  P           12         0.125070   0.624930   0.875334   x 
            x  P           13         0.375068   0.621919   0.621919   x 
            x  P           14         0.125070   0.875334   0.624930   x 
            x  P           15         0.375000   0.875000   0.875000   x 
            x  P           16         0.621919   0.128081   0.374932   x 
            x  P           17         0.874666   0.125070   0.125070   x 
            x  P           18         0.621919   0.374932   0.128081   x 
            x  P           19         0.875000   0.375000   0.375000   x 
            x  P           20         0.624930   0.125070   0.875334   x 
            x  P           21         0.875334   0.125070   0.624930   x 
            x  P           22         0.621919   0.375068   0.621919   x 
            x  P           23         0.875000   0.375000   0.875000   x 
            x  P           24         0.621919   0.621919   0.375068   x 
            x  P           25         0.875334   0.624930   0.125070   x 
            x  P           26         0.624930   0.875334   0.125070   x 
            x  P           27         0.875000   0.875000   0.375000   x 
            x  P           28         0.624930   0.624930   0.874666   x 
            x  P           29         0.874666   0.624930   0.624930   x 
            x  P           30         0.624930   0.874666   0.624930   x 
            x  P           31         0.875000   0.875000   0.875000   x 
            x  In           1        -0.000110  -0.000110  -0.000110   x 
            x  In           2         0.249775   0.000228   0.249775   x 
            x  In           3         0.000228   0.249775   0.249775   x 
            x  In           4         0.249775   0.249775   0.000228   x 
            x  In           5         0.001407   0.001407   0.499542   x 
            x  In           6         0.250458   0.001407   0.748593   x 
            x  In           7         0.001407   0.250458   0.748593   x 
            x  In           8         0.260033   0.260033   0.489968   x 
            x  In           9         0.001407   0.499542   0.001407   x 
            x  In          10         0.260033   0.489968   0.260033   x 
            x  In          11         0.001407   0.748593   0.250458   x 
            x  In          12         0.250458   0.748593   0.001407   x 
            x  In          13         0.000228   0.500225   0.500225   x 
            x  In          14         0.249775   0.500225   0.749772   x 
            x  In          15        -0.000110   0.750110   0.750110   x 
            x  In          16         0.249775   0.749772   0.500225   x 
            x  In          17         0.499542   0.001407   0.001407   x 
            x  In          18         0.748593   0.001407   0.250458   x 
            x  In          19         0.489968   0.260033   0.260033   x 
            x  In          20         0.748593   0.250458   0.001407   x 
            x  In          21         0.500225   0.000228   0.500225   x 
            x  In          22         0.750110  -0.000110   0.750110   x 
            x  In          23         0.500225   0.249775   0.749772   x 
            x  In          24         0.749772   0.249775   0.500225   x 
            x  In          25         0.500225   0.500225   0.000228   x 
            x  In          26         0.749772   0.500225   0.249775   x 
            x  In          27         0.500225   0.749772   0.249775   x 
            x  In          28         0.750110   0.750110  -0.000110   x 
            x  In          29         0.489966   0.489966   0.489966   x 
            x  In          30         0.748593   0.499542   0.748593   x 
            x  In          31         0.499542   0.748593   0.748593   x 
            x  In          32         0.748593   0.748593   0.499542   x 
            xxxxxxxxxxxxxxxxxxxxxxxxxxxxxxxxxxxxxxxxxxxxxxxxxxxxxxxxxxxx


                         No user defined ionic velocities

                           -------------------------------
                                   Details of Species
                           -------------------------------

                               Mass of species in AMU
                                    P   30.9737600
                                    In  114.8180000

                          Electric Quadrupole Moment (Barn)
                                    P    1.0000000 No Isotope Defined
                                    In    0.7700000 Isotope115

                          Files used for pseudopotentials:
                                    P 3|1.8|4|4|5|30:31:32
                                    In 3|2.5|2.5|1.5|7|8|9|50:51:42U2.2U2.2

                           -------------------------------
                              k-Points For BZ Sampling
                           -------------------------------
                       MP grid size for SCF calculation is  4  4  4
                            with an offset of   0.125  0.125  0.125
                       Number of kpoints used =            36

                           -------------------------------
                               Symmetry and Constraints
                           -------------------------------

                      Maximum deviation from symmetry =  0.00000         ANG

                      Number of symmetry operations   =           1
                      Number of ionic constraints     =           3
                      Point group of crystal =     1: C1, 1, 1
                      Space group of crystal =   215: P-43m, P -4 2 3

             Set iprint > 1 for details on symmetry rotations/translations

                         Centre of mass is constrained
             Set iprint > 1 for details of linear ionic constraints

                         Number of cell constraints= 0
                         Cell constraints are:  1 2 3 4 5 6

                         External pressure/stress (GPa)
                          0.00000   0.00000   0.00000
                                    0.00000   0.00000
                                              0.00000
 
+---------------- MEMORY AND SCRATCH DISK ESTIMATES PER PROCESS --------------+
|                                                     Memory          Disk    |
| Baseline code, static data and system overhead      368.0 MB         0.0 MB |
| BLAS internal memory storage                          0.0 MB         0.0 MB |
| Model and support data                             4302.1 MB         0.0 MB |
| Electronic energy minimisation requirements        1320.9 MB         0.0 MB |
| Force calculation requirements                      127.4 MB         0.0 MB |
|                                               ----------------------------- |
| Approx. total storage required per process         5991.0 MB         0.0 MB |
|                                                                             |
| Requirements will fluctuate during execution and may exceed these estimates |
+-----------------------------------------------------------------------------+
Calculating approximate eigenstates for fixed initial Hamiltonian
Cut-off for approx. calculation is   89.988 eV
Improving approx. states at cut-off of  450.000 eV
Resetting cut-off to  900.000 eV
Calculating total energy with cut-off of  900.000 eV.
------------------------------------------------------------------------ <-- SCF
SCF loop      Energy           Fermi           Energy gain       Timer   <-- SCF
                               energy          per atom          (sec)   <-- SCF
------------------------------------------------------------------------ <-- SCF
Initial  -6.28304000E+004  0.00000000E+000                       420.50  <-- SCF
      1  -6.25862933E+004  3.07029493E+000  -3.87470941E+000     899.09  <-- SCF
      2  -6.25865523E+004  3.06988323E+000   4.11233176E-003    1203.10  <-- SCF
      3  -6.26539976E+004  3.15694952E+000   1.07056008E+000    1542.18  <-- SCF
      4  -6.26664238E+004  3.19866083E+000   1.97241436E-001    2029.65  <-- SCF
      5  -6.26736324E+004  3.29330963E+000   1.14421137E-001    2373.53  <-- SCF
      6  -6.26625890E+004  3.47224878E+000  -1.75291605E-001    2711.82  <-- SCF
      7  -6.26613215E+004  3.51512593E+000  -2.01185935E-002    3055.47  <-- SCF
      8  -6.26612094E+004  3.53739583E+000  -1.78007562E-003    3414.23  <-- SCF
      9  -6.26620157E+004  3.54299705E+000   1.27983815E-002    3781.23  <-- SCF
     10  -6.26625069E+004  3.78276602E+000   7.79663707E-003    4131.38  <-- SCF
     11  -6.26625232E+004  3.78923936E+000   2.59224286E-004    4499.41  <-- SCF
     12  -6.26625334E+004  3.79096463E+000   1.61505686E-004    4855.65  <-- SCF
     13  -6.26625370E+004  3.79149139E+000   5.77161756E-005    5215.09  <-- SCF
     14  -6.26625396E+004  3.79193928E+000   4.16351367E-005    5577.90  <-- SCF
     15  -6.26625405E+004  3.79208752E+000   1.42330267E-005    5942.45  <-- SCF
     16  -6.26625418E+004  3.79220506E+000   1.99958020E-005    6304.05  <-- SCF
     17  -6.26625421E+004  3.79227890E+000   5.55163998E-006    6680.22  <-- SCF
     18  -6.26625424E+004  3.79251246E+000   3.52478663E-006    7036.75  <-- SCF
     19  -6.26625424E+004  3.79256358E+000   2.71957975E-007    7369.06  <-- SCF
     20  -6.26625424E+004  3.79257207E+000   6.30376600E-008    7660.86  <-- SCF
     21  -6.26625424E+004  3.79257140E+000   2.98181486E-008    7928.67  <-- SCF
     22  -6.26625424E+004  3.79257245E+000   2.59703288E-009    8184.75  <-- SCF
     23  -6.26625424E+004  3.79257014E+000   8.77790041E-010    8422.99  <-- SCF
------------------------------------------------------------------------ <-- SCF
 
Integrated Spin Density     =   -0.745751E-04 hbar/2
Integrated |Spin Density|   =    0.585982E-03 hbar/2
 
Final energy, E             =  -62662.41408904     eV
Final free energy (E-TS)    =  -62662.54238438     eV
(energies not corrected for finite basis set)
 
NB est. 0K energy (E-0.5TS)      =  -62662.47823671     eV
 

 ************************** Forces **************************
 *                                                          *
 *               Cartesian components (eV/A)                *
 * -------------------------------------------------------- *
 *                         x            y            z      *
 *                                                          *
 * P               1      0.00194      0.00194     -0.00702 *
 * P               2     -0.00702      0.00194      0.00193 *
 * P               3      0.00194     -0.00701      0.00193 *
 * P               4      0.00681      0.00681      0.00440 *
 * P               5      0.00702      0.00193     -0.00193 *
 * P               6      0.00193      0.00702     -0.00193 *
 * P               7      0.00001      0.00000     -0.00000 *
 * P               8      0.00193     -0.00193      0.00702 *
 * P               9      0.00702     -0.00193      0.00193 *
 * P              10      0.00681      0.00440      0.00680 *
 * P              11      0.00001     -0.00000     -0.00000 *
 * P              12      0.00681     -0.00682     -0.00440 *
 * P              13     -0.00701     -0.00193     -0.00194 *
 * P              14      0.00681     -0.00440     -0.00682 *
 * P              15      0.00000     -0.00001     -0.00001 *
 * P              16     -0.00193      0.00193      0.00702 *
 * P              17      0.00440      0.00681      0.00681 *
 * P              18     -0.00193      0.00702      0.00193 *
 * P              19     -0.00000      0.00000      0.00000 *
 * P              20     -0.00681      0.00681     -0.00439 *
 * P              21     -0.00439      0.00681     -0.00681 *
 * P              22     -0.00193     -0.00702     -0.00193 *
 * P              23     -0.00001     -0.00000     -0.00001 *
 * P              24     -0.00193     -0.00193     -0.00701 *
 * P              25     -0.00439     -0.00682      0.00681 *
 * P              26     -0.00681     -0.00439      0.00681 *
 * P              27     -0.00000     -0.00001     -0.00001 *
 * P              28     -0.00681     -0.00681      0.00440 *
 * P              29      0.00440     -0.00681     -0.00681 *
 * P              30     -0.00681      0.00440     -0.00681 *
 * P              31     -0.00001     -0.00001      0.00000 *
 * In              1      0.00839      0.00839      0.00839 *
 * In              2      0.01777      0.00067      0.01778 *
 * In              3      0.00067      0.01777      0.01778 *
 * In              4      0.01777      0.01777      0.00067 *
 * In              5      0.00001      0.00001      0.01372 *
 * In              6     -0.01371      0.00001      0.00000 *
 * In              7      0.00001     -0.01371      0.00000 *
 * In              8      0.00950      0.00950     -0.00951 *
 * In              9      0.00001      0.01372      0.00000 *
 * In             10      0.00950     -0.00951      0.00950 *
 * In             11      0.00001     -0.00000     -0.01370 *
 * In             12     -0.01371     -0.00000      0.00001 *
 * In             13      0.00067     -0.01777     -0.01777 *
 * In             14      0.01776     -0.01778     -0.00066 *
 * In             15      0.00838     -0.00838     -0.00838 *
 * In             16      0.01776     -0.00067     -0.01777 *
 * In             17      0.01372      0.00000      0.00000 *
 * In             18     -0.00000      0.00001     -0.01371 *
 * In             19     -0.00951      0.00951      0.00951 *
 * In             20     -0.00000     -0.01371      0.00001 *
 * In             21     -0.01777      0.00067     -0.01777 *
 * In             22     -0.00838      0.00838     -0.00838 *
 * In             23     -0.01778      0.01777     -0.00067 *
 * In             24     -0.00067      0.01777     -0.01778 *
 * In             25     -0.01777     -0.01777      0.00067 *
 * In             26     -0.00067     -0.01778      0.01777 *
 * In             27     -0.01778     -0.00067      0.01777 *
 * In             28     -0.00838     -0.00838      0.00837 *
 * In             29     -0.00951     -0.00951     -0.00951 *
 * In             30     -0.00001      0.01371      0.00000 *
 * In             31      0.01371      0.00000      0.00000 *
 * In             32     -0.00001     -0.00001      0.01371 *
 *                                                          *
 ************************************************************

 Pseudo atomic calculation performed for P 3s2 3p3

 Converged in 23 iterations to a total energy of -208.0292 eV

 Pseudo atomic calculation performed for In 4d10 5s2 5p1

 Converged in 42 iterations to a total energy of -1747.4501 eV
Charge spilling parameter for spin component 1 = 0.17%
Charge spilling parameter for spin component 2 = 0.17%

                   Orbital Populations                  
  ---------------------------------------------------------------
     Ion    Atom   Orbital              Up        Down      Spin
  ---------------------------------------------------------------
      P     1      S                    0.872     0.872     0.000
      P     1      Px                   0.646     0.646    -0.000
      P     1      Py                   0.646     0.646    -0.000
      P     1      Pz                   0.664     0.664    -0.000
      P     2      S                    0.872     0.872     0.000
      P     2      Px                   0.664     0.664    -0.000
      P     2      Py                   0.646     0.646     0.000
      P     2      Pz                   0.646     0.646    -0.000
      P     3      S                    0.872     0.872     0.000
      P     3      Px                   0.646     0.646     0.000
      P     3      Py                   0.664     0.664    -0.000
      P     3      Pz                   0.646     0.646    -0.000
      P     4      S                    0.868     0.868     0.000
      P     4      Px                   0.656     0.656    -0.000
      P     4      Py                   0.656     0.656    -0.000
      P     4      Pz                   0.655     0.655     0.000
      P     5      S                    0.872     0.872     0.000
      P     5      Px                   0.664     0.664    -0.000
      P     5      Py                   0.646     0.646    -0.000
      P     5      Pz                   0.646     0.646    -0.000
      P     6      S                    0.872     0.872     0.000
      P     6      Px                   0.646     0.646    -0.000
      P     6      Py                   0.664     0.664     0.000
      P     6      Pz                   0.646     0.646    -0.000
      P     7      S                    0.868     0.868     0.000
      P     7      Px                   0.656     0.656     0.000
      P     7      Py                   0.656     0.656     0.000
      P     7      Pz                   0.657     0.657    -0.000
      P     8      S                    0.872     0.872     0.000
      P     8      Px                   0.646     0.646    -0.000
      P     8      Py                   0.646     0.646    -0.000
      P     8      Pz                   0.664     0.664    -0.000
      P     9      S                    0.872     0.872     0.000
      P     9      Px                   0.664     0.664    -0.000
      P     9      Py                   0.646     0.646    -0.000
      P     9      Pz                   0.646     0.646    -0.000
      P    10      S                    0.868     0.868     0.000
      P    10      Px                   0.656     0.656    -0.000
      P    10      Py                   0.655     0.655    -0.000
      P    10      Pz                   0.656     0.656    -0.000
      P    11      S                    0.868     0.868     0.000
      P    11      Px                   0.656     0.656    -0.000
      P    11      Py                   0.657     0.657    -0.000
      P    11      Pz                   0.656     0.656    -0.000
      P    12      S                    0.868     0.868     0.000
      P    12      Px                   0.656     0.656    -0.000
      P    12      Py                   0.656     0.656    -0.000
      P    12      Pz                   0.655     0.655    -0.000
      P    13      S                    0.872     0.872     0.000
      P    13      Px                   0.664     0.664    -0.000
      P    13      Py                   0.646     0.646    -0.000
      P    13      Pz                   0.646     0.646    -0.000
      P    14      S                    0.868     0.868     0.000
      P    14      Px                   0.656     0.656     0.000
      P    14      Py                   0.655     0.655    -0.000
      P    14      Pz                   0.656     0.656    -0.000
      P    15      S                    0.873     0.873    -0.000
      P    15      Px                   0.661     0.661    -0.000
      P    15      Py                   0.648     0.648    -0.000
      P    15      Pz                   0.648     0.648    -0.000
      P    16      S                    0.872     0.872     0.000
      P    16      Px                   0.646     0.646    -0.000
      P    16      Py                   0.646     0.646    -0.000
      P    16      Pz                   0.664     0.664    -0.000
      P    17      S                    0.868     0.868     0.000
      P    17      Px                   0.655     0.655    -0.000
      P    17      Py                   0.656     0.656    -0.000
      P    17      Pz                   0.656     0.656    -0.000
      P    18      S                    0.872     0.872     0.000
      P    18      Px                   0.646     0.646    -0.000
      P    18      Py                   0.664     0.664    -0.000
      P    18      Pz                   0.646     0.646     0.000
      P    19      S                    0.868     0.868     0.000
      P    19      Px                   0.657     0.657    -0.000
      P    19      Py                   0.656     0.656    -0.000
      P    19      Pz                   0.656     0.656    -0.000
      P    20      S                    0.868     0.868     0.000
      P    20      Px                   0.656     0.656    -0.000
      P    20      Py                   0.656     0.656    -0.000
      P    20      Pz                   0.655     0.655    -0.000
      P    21      S                    0.868     0.868     0.000
      P    21      Px                   0.655     0.655    -0.000
      P    21      Py                   0.656     0.656    -0.000
      P    21      Pz                   0.656     0.656    -0.000
      P    22      S                    0.872     0.872     0.000
      P    22      Px                   0.646     0.646    -0.000
      P    22      Py                   0.664     0.664    -0.000
      P    22      Pz                   0.646     0.646    -0.000
      P    23      S                    0.873     0.873     0.000
      P    23      Px                   0.648     0.648    -0.000
      P    23      Py                   0.661     0.661    -0.000
      P    23      Pz                   0.648     0.648    -0.000
      P    24      S                    0.872     0.872     0.000
      P    24      Px                   0.646     0.646    -0.000
      P    24      Py                   0.646     0.646     0.000
      P    24      Pz                   0.664     0.664    -0.000
      P    25      S                    0.868     0.868     0.000
      P    25      Px                   0.655     0.655    -0.000
      P    25      Py                   0.656     0.656    -0.000
      P    25      Pz                   0.656     0.656    -0.000
      P    26      S                    0.868     0.868     0.000
      P    26      Px                   0.656     0.656    -0.000
      P    26      Py                   0.655     0.655    -0.000
      P    26      Pz                   0.656     0.656    -0.000
      P    27      S                    0.873     0.873     0.000
      P    27      Px                   0.648     0.648    -0.000
      P    27      Py                   0.648     0.648    -0.000
      P    27      Pz                   0.661     0.661    -0.000
      P    28      S                    0.868     0.868    -0.000
      P    28      Px                   0.656     0.656     0.000
      P    28      Py                   0.656     0.656    -0.000
      P    28      Pz                   0.655     0.655    -0.000
      P    29      S                    0.868     0.868     0.000
      P    29      Px                   0.655     0.655    -0.000
      P    29      Py                   0.656     0.656    -0.000
      P    29      Pz                   0.656     0.656     0.000
      P    30      S                    0.868     0.868     0.000
      P    30      Px                   0.656     0.656    -0.000
      P    30      Py                   0.655     0.655    -0.000
      P    30      Pz                   0.656     0.656     0.000
      P    31      S                    0.867     0.867     0.000
      P    31      Px                   0.657     0.657     0.000
      P    31      Py                   0.657     0.657     0.000
      P    31      Pz                   0.657     0.657     0.000
     In     1      Dzz                  1.000     1.000    -0.000
     In     1      Dzy                  0.998     0.998    -0.000
     In     1      Dzx                  0.998     0.998    -0.000
     In     1      Dxx-yy               1.000     1.000     0.000
     In     1      Dxy                  0.998     0.998    -0.000
     In     1      S                    0.708     0.708     0.000
     In     1      Px                   0.240     0.240    -0.000
     In     1      Py                   0.240     0.240    -0.000
     In     1      Pz                   0.240     0.240    -0.000
     In     1      S                   -0.254    -0.254    -0.000
     In     2      Dzz                  1.000     1.000     0.000
     In     2      Dzy                  0.998     0.998    -0.000
     In     2      Dzx                  0.999     0.999    -0.000
     In     2      Dxx-yy               1.000     1.000    -0.000
     In     2      Dxy                  0.998     0.998     0.000
     In     2      S                    0.708     0.707     0.000
     In     2      Px                   0.241     0.241     0.000
     In     2      Py                   0.240     0.240     0.000
     In     2      Pz                   0.241     0.241     0.000
     In     2      S                   -0.251    -0.251     0.000
     In     3      Dzz                  1.000     1.000     0.000
     In     3      Dzy                  0.999     0.999    -0.000
     In     3      Dzx                  0.998     0.998    -0.000
     In     3      Dxx-yy               1.000     1.000     0.000
     In     3      Dxy                  0.998     0.998     0.000
     In     3      S                    0.708     0.707     0.000
     In     3      Px                   0.240     0.240    -0.000
     In     3      Py                   0.241     0.241    -0.000
     In     3      Pz                   0.241     0.241     0.000
     In     3      S                   -0.251    -0.251    -0.000
     In     4      Dzz                  1.000     1.000     0.000
     In     4      Dzy                  0.998     0.998     0.000
     In     4      Dzx                  0.998     0.998    -0.000
     In     4      Dxx-yy               1.000     1.000     0.000
     In     4      Dxy                  0.999     0.999     0.000
     In     4      S                    0.707     0.707     0.000
     In     4      Px                   0.241     0.241     0.000
     In     4      Py                   0.241     0.241    -0.000
     In     4      Pz                   0.240     0.240     0.000
     In     4      S                   -0.251    -0.251     0.000
     In     5      Dzz                  1.000     1.000    -0.000
     In     5      Dzy                  0.999     0.999    -0.000
     In     5      Dzx                  0.999     0.999    -0.000
     In     5      Dxx-yy               1.000     1.000     0.000
     In     5      Dxy                  0.999     0.999    -0.000
     In     5      S                    0.710     0.710     0.000
     In     5      Px                   0.240     0.240    -0.000
     In     5      Py                   0.240     0.240    -0.000
     In     5      Pz                   0.239     0.239     0.000
     In     5      S                   -0.251    -0.251    -0.000
     In     6      Dzz                  1.000     1.000    -0.000
     In     6      Dzy                  0.999     0.999    -0.000
     In     6      Dzx                  0.999     0.999    -0.000
     In     6      Dxx-yy               1.000     1.000    -0.000
     In     6      Dxy                  0.999     0.999    -0.000
     In     6      S                    0.710     0.710     0.000
     In     6      Px                   0.239     0.239    -0.000
     In     6      Py                   0.240     0.240    -0.000
     In     6      Pz                   0.240     0.240     0.000
     In     6      S                   -0.251    -0.251     0.000
     In     7      Dzz                  1.000     1.000     0.000
     In     7      Dzy                  0.999     0.999    -0.000
     In     7      Dzx                  0.999     0.999    -0.000
     In     7      Dxx-yy               1.000     1.000     0.000
     In     7      Dxy                  0.999     0.999    -0.000
     In     7      S                    0.710     0.710     0.000
     In     7      Px                   0.240     0.240    -0.000
     In     7      Py                   0.239     0.239    -0.000
     In     7      Pz                   0.240     0.240     0.000
     In     7      S                   -0.251    -0.251    -0.000
     In     8      Dzz                  1.000     1.000     0.000
     In     8      Dzy                  0.999     0.999    -0.000
     In     8      Dzx                  0.999     0.999    -0.000
     In     8      Dxx-yy               1.000     1.000    -0.000
     In     8      Dxy                  0.999     0.999    -0.000
     In     8      S                    0.723     0.723     0.000
     In     8      Px                   0.243     0.243    -0.000
     In     8      Py                   0.243     0.243    -0.000
     In     8      Pz                   0.243     0.243    -0.000
     In     8      S                   -0.228    -0.228    -0.000
     In     9      Dzz                  1.000     1.000     0.000
     In     9      Dzy                  0.999     0.999    -0.000
     In     9      Dzx                  0.999     0.999    -0.000
     In     9      Dxx-yy               1.000     1.000     0.000
     In     9      Dxy                  0.999     0.999    -0.000
     In     9      S                    0.710     0.710    -0.000
     In     9      Px                   0.240     0.240    -0.000
     In     9      Py                   0.239     0.239    -0.000
     In     9      Pz                   0.240     0.240     0.000
     In     9      S                   -0.251    -0.251    -0.000
     In    10      Dzz                  1.000     1.000     0.000
     In    10      Dzy                  0.999     0.999     0.000
     In    10      Dzx                  0.999     0.999    -0.000
     In    10      Dxx-yy               1.000     1.000     0.000
     In    10      Dxy                  0.999     0.999    -0.000
     In    10      S                    0.723     0.723     0.000
     In    10      Px                   0.243     0.243    -0.000
     In    10      Py                   0.243     0.243    -0.000
     In    10      Pz                   0.243     0.243     0.000
     In    10      S                   -0.228    -0.228     0.000
     In    11      Dzz                  1.000     1.000     0.000
     In    11      Dzy                  0.999     0.999    -0.000
     In    11      Dzx                  0.999     0.999    -0.000
     In    11      Dxx-yy               1.000     1.000     0.000
     In    11      Dxy                  0.999     0.999    -0.000
     In    11      S                    0.710     0.710    -0.000
     In    11      Px                   0.240     0.240    -0.000
     In    11      Py                   0.240     0.240    -0.000
     In    11      Pz                   0.239     0.239     0.000
     In    11      S                   -0.251    -0.251    -0.000
     In    12      Dzz                  1.000     1.000    -0.000
     In    12      Dzy                  0.999     0.999    -0.000
     In    12      Dzx                  0.999     0.999    -0.000
     In    12      Dxx-yy               1.000     1.000    -0.000
     In    12      Dxy                  0.999     0.999    -0.000
     In    12      S                    0.710     0.710    -0.000
     In    12      Px                   0.239     0.239     0.000
     In    12      Py                   0.240     0.240    -0.000
     In    12      Pz                   0.240     0.240    -0.000
     In    12      S                   -0.251    -0.251    -0.000
     In    13      Dzz                  1.000     1.000     0.000
     In    13      Dzy                  0.999     0.999    -0.000
     In    13      Dzx                  0.998     0.998    -0.000
     In    13      Dxx-yy               1.000     1.000     0.000
     In    13      Dxy                  0.998     0.998    -0.000
     In    13      S                    0.707     0.707     0.000
     In    13      Px                   0.240     0.240    -0.000
     In    13      Py                   0.241     0.241     0.000
     In    13      Pz                   0.241     0.241     0.000
     In    13      S                   -0.251    -0.251     0.000
     In    14      Dzz                  1.000     1.000     0.000
     In    14      Dzy                  0.998     0.998    -0.000
     In    14      Dzx                  0.998     0.998    -0.000
     In    14      Dxx-yy               1.000     1.000    -0.000
     In    14      Dxy                  0.999     0.999    -0.000
     In    14      S                    0.707     0.707     0.000
     In    14      Px                   0.241     0.241     0.000
     In    14      Py                   0.241     0.241    -0.000
     In    14      Pz                   0.240     0.240     0.000
     In    14      S                   -0.251    -0.251    -0.000
     In    15      Dzz                  1.000     1.000     0.000
     In    15      Dzy                  0.998     0.998    -0.000
     In    15      Dzx                  0.998     0.998    -0.000
     In    15      Dxx-yy               1.000     1.000    -0.000
     In    15      Dxy                  0.998     0.998    -0.000
     In    15      S                    0.708     0.708    -0.000
     In    15      Px                   0.240     0.240    -0.000
     In    15      Py                   0.240     0.240    -0.000
     In    15      Pz                   0.240     0.240    -0.000
     In    15      S                   -0.254    -0.254    -0.000
     In    16      Dzz                  1.000     1.000     0.000
     In    16      Dzy                  0.998     0.998    -0.000
     In    16      Dzx                  0.999     0.999    -0.000
     In    16      Dxx-yy               1.000     1.000     0.000
     In    16      Dxy                  0.998     0.998    -0.000
     In    16      S                    0.707     0.707     0.000
     In    16      Px                   0.241     0.241    -0.000
     In    16      Py                   0.240     0.240     0.000
     In    16      Pz                   0.241     0.241     0.000
     In    16      S                   -0.251    -0.251     0.000
     In    17      Dzz                  1.000     1.000    -0.000
     In    17      Dzy                  0.999     0.999    -0.000
     In    17      Dzx                  0.999     0.999    -0.000
     In    17      Dxx-yy               1.000     1.000     0.000
     In    17      Dxy                  0.999     0.999    -0.000
     In    17      S                    0.710     0.710     0.000
     In    17      Px                   0.239     0.239    -0.000
     In    17      Py                   0.240     0.240    -0.000
     In    17      Pz                   0.240     0.240     0.000
     In    17      S                   -0.251    -0.251    -0.000
     In    18      Dzz                  1.000     1.000    -0.000
     In    18      Dzy                  0.999     0.999    -0.000
     In    18      Dzx                  0.999     0.999    -0.000
     In    18      Dxx-yy               1.000     1.000     0.000
     In    18      Dxy                  0.999     0.999    -0.000
     In    18      S                    0.710     0.710     0.000
     In    18      Px                   0.240     0.240     0.000
     In    18      Py                   0.240     0.240    -0.000
     In    18      Pz                   0.239     0.239    -0.000
     In    18      S                   -0.251    -0.251     0.000
     In    19      Dzz                  1.000     1.000    -0.000
     In    19      Dzy                  0.999     0.999    -0.000
     In    19      Dzx                  0.999     0.999    -0.000
     In    19      Dxx-yy               1.000     1.000    -0.000
     In    19      Dxy                  0.999     0.999    -0.000
     In    19      S                    0.723     0.723     0.000
     In    19      Px                   0.243     0.243    -0.000
     In    19      Py                   0.243     0.243    -0.000
     In    19      Pz                   0.243     0.243    -0.000
     In    19      S                   -0.228    -0.228     0.000
     In    20      Dzz                  1.000     1.000    -0.000
     In    20      Dzy                  0.999     0.999    -0.000
     In    20      Dzx                  0.999     0.999    -0.000
     In    20      Dxx-yy               1.000     1.000     0.000
     In    20      Dxy                  0.999     0.999    -0.000
     In    20      S                    0.710     0.710     0.000
     In    20      Px                   0.240     0.240     0.000
     In    20      Py                   0.239     0.239    -0.000
     In    20      Pz                   0.240     0.240     0.000
     In    20      S                   -0.251    -0.251    -0.000
     In    21      Dzz                  1.000     1.000    -0.000
     In    21      Dzy                  0.998     0.998    -0.000
     In    21      Dzx                  0.999     0.999    -0.000
     In    21      Dxx-yy               1.000     1.000     0.000
     In    21      Dxy                  0.998     0.998    -0.000
     In    21      S                    0.707     0.707     0.000
     In    21      Px                   0.241     0.241     0.000
     In    21      Py                   0.240     0.240     0.000
     In    21      Pz                   0.241     0.241     0.000
     In    21      S                   -0.251    -0.251     0.000
     In    22      Dzz                  1.000     1.000     0.000
     In    22      Dzy                  0.998     0.998    -0.000
     In    22      Dzx                  0.998     0.998    -0.000
     In    22      Dxx-yy               1.000     1.000    -0.000
     In    22      Dxy                  0.998     0.998    -0.000
     In    22      S                    0.708     0.708     0.000
     In    22      Px                   0.240     0.240    -0.000
     In    22      Py                   0.240     0.240    -0.000
     In    22      Pz                   0.240     0.240    -0.000
     In    22      S                   -0.254    -0.254     0.000
     In    23      Dzz                  1.000     1.000     0.000
     In    23      Dzy                  0.998     0.998    -0.000
     In    23      Dzx                  0.998     0.998    -0.000
     In    23      Dxx-yy               1.000     1.000    -0.000
     In    23      Dxy                  0.999     0.999    -0.000
     In    23      S                    0.708     0.707     0.000
     In    23      Px                   0.241     0.241     0.000
     In    23      Py                   0.241     0.241     0.000
     In    23      Pz                   0.240     0.240     0.000
     In    23      S                   -0.251    -0.251    -0.000
     In    24      Dzz                  1.000     1.000     0.000
     In    24      Dzy                  0.999     0.999    -0.000
     In    24      Dzx                  0.998     0.998    -0.000
     In    24      Dxx-yy               1.000     1.000    -0.000
     In    24      Dxy                  0.998     0.998    -0.000
     In    24      S                    0.707     0.707    -0.000
     In    24      Px                   0.240     0.240    -0.000
     In    24      Py                   0.241     0.241     0.000
     In    24      Pz                   0.241     0.241     0.000
     In    24      S                   -0.251    -0.251    -0.000
     In    25      Dzz                  1.000     1.000    -0.000
     In    25      Dzy                  0.998     0.998    -0.000
     In    25      Dzx                  0.998     0.998    -0.000
     In    25      Dxx-yy               1.000     1.000    -0.000
     In    25      Dxy                  0.999     0.999     0.000
     In    25      S                    0.708     0.707     0.000
     In    25      Px                   0.241     0.241    -0.000
     In    25      Py                   0.241     0.241    -0.000
     In    25      Pz                   0.240     0.240     0.000
     In    25      S                   -0.251    -0.251    -0.000
     In    26      Dzz                  1.000     1.000    -0.000
     In    26      Dzy                  0.999     0.999    -0.000
     In    26      Dzx                  0.998     0.998     0.000
     In    26      Dxx-yy               1.000     1.000    -0.000
     In    26      Dxy                  0.998     0.998    -0.000
     In    26      S                    0.707     0.707     0.000
     In    26      Px                   0.240     0.240     0.000
     In    26      Py                   0.241     0.241     0.000
     In    26      Pz                   0.241     0.241    -0.000
     In    26      S                   -0.251    -0.251    -0.000
     In    27      Dzz                  1.000     1.000     0.000
     In    27      Dzy                  0.998     0.998    -0.000
     In    27      Dzx                  0.999     0.999    -0.000
     In    27      Dxx-yy               1.000     1.000    -0.000
     In    27      Dxy                  0.998     0.998    -0.000
     In    27      S                    0.708     0.707     0.000
     In    27      Px                   0.241     0.241     0.000
     In    27      Py                   0.240     0.240     0.000
     In    27      Pz                   0.241     0.241     0.000
     In    27      S                   -0.251    -0.251    -0.000
     In    28      Dzz                  1.000     1.000    -0.000
     In    28      Dzy                  0.998     0.998    -0.000
     In    28      Dzx                  0.998     0.998    -0.000
     In    28      Dxx-yy               1.000     1.000    -0.000
     In    28      Dxy                  0.998     0.998    -0.000
     In    28      S                    0.708     0.708     0.000
     In    28      Px                   0.240     0.240    -0.000
     In    28      Py                   0.240     0.240    -0.000
     In    28      Pz                   0.240     0.240    -0.000
     In    28      S                   -0.254    -0.254    -0.000
     In    29      Dzz                  1.000     1.000     0.000
     In    29      Dzy                  0.999     0.999    -0.000
     In    29      Dzx                  0.999     0.999    -0.000
     In    29      Dxx-yy               1.000     1.000     0.000
     In    29      Dxy                  0.999     0.999    -0.000
     In    29      S                    0.723     0.723     0.000
     In    29      Px                   0.243     0.243    -0.000
     In    29      Py                   0.243     0.243    -0.000
     In    29      Pz                   0.243     0.243    -0.000
     In    29      S                   -0.228    -0.228    -0.000
     In    30      Dzz                  1.000     1.000     0.000
     In    30      Dzy                  0.999     0.999    -0.000
     In    30      Dzx                  0.999     0.999     0.000
     In    30      Dxx-yy               1.000     1.000     0.000
     In    30      Dxy                  0.999     0.999    -0.000
     In    30      S                    0.710     0.710     0.000
     In    30      Px                   0.240     0.240    -0.000
     In    30      Py                   0.239     0.239    -0.000
     In    30      Pz                   0.240     0.240     0.000
     In    30      S                   -0.251    -0.251    -0.000
     In    31      Dzz                  1.000     1.000    -0.000
     In    31      Dzy                  0.999     0.999    -0.000
     In    31      Dzx                  0.999     0.999    -0.000
     In    31      Dxx-yy               1.000     1.000     0.000
     In    31      Dxy                  0.999     0.999    -0.000
     In    31      S                    0.710     0.710     0.000
     In    31      Px                   0.239     0.239    -0.000
     In    31      Py                   0.240     0.240    -0.000
     In    31      Pz                   0.240     0.240     0.000
     In    31      S                   -0.251    -0.251    -0.000
     In    32      Dzz                  1.000     1.000    -0.000
     In    32      Dzy                  0.999     0.999    -0.000
     In    32      Dzx                  0.999     0.999    -0.000
     In    32      Dxx-yy               1.000     1.000     0.000
     In    32      Dxy                  0.999     0.999     0.000
     In    32      S                    0.710     0.710     0.000
     In    32      Px                   0.240     0.240    -0.000
     In    32      Py                   0.240     0.240    -0.000
     In    32      Pz                   0.239     0.239     0.000
     In    32      S                   -0.251    -0.251    -0.000
  ---------------------------------------------------------------
                           Total:     285.500   285.500    -0.000
  ---------------------------------------------------------------

     Atomic Populations (Mulliken)
     -----------------------------
Species          Ion Spin      s       p       d       f      Total   Charge(e)   Spin(hbar/2)
==============================================================================================
  P               1   up:     0.872   1.956   0.000   0.000   2.828    -0.656       -0.000
                  1   dn:     0.872   1.956   0.000   0.000   2.828
  P               2   up:     0.872   1.956   0.000   0.000   2.828    -0.656        0.000
                  2   dn:     0.872   1.956   0.000   0.000   2.828
  P               3   up:     0.872   1.956   0.000   0.000   2.828    -0.656       -0.000
                  3   dn:     0.872   1.956   0.000   0.000   2.828
  P               4   up:     0.868   1.968   0.000   0.000   2.836    -0.672       -0.000
                  4   dn:     0.868   1.968   0.000   0.000   2.836
  P               5   up:     0.872   1.956   0.000   0.000   2.828    -0.656       -0.000
                  5   dn:     0.872   1.956   0.000   0.000   2.828
  P               6   up:     0.872   1.956   0.000   0.000   2.828    -0.656        0.000
                  6   dn:     0.872   1.956   0.000   0.000   2.828
  P               7   up:     0.868   1.968   0.000   0.000   2.836    -0.672        0.000
                  7   dn:     0.868   1.968   0.000   0.000   2.836
  P               8   up:     0.872   1.956   0.000   0.000   2.828    -0.656       -0.000
                  8   dn:     0.872   1.956   0.000   0.000   2.828
  P               9   up:     0.872   1.956   0.000   0.000   2.828    -0.656       -0.000
                  9   dn:     0.872   1.956   0.000   0.000   2.828
  P              10   up:     0.868   1.968   0.000   0.000   2.836    -0.672       -0.000
                 10   dn:     0.868   1.968   0.000   0.000   2.836
  P              11   up:     0.868   1.968   0.000   0.000   2.836    -0.672       -0.000
                 11   dn:     0.868   1.968   0.000   0.000   2.836
  P              12   up:     0.868   1.968   0.000   0.000   2.836    -0.672       -0.000
                 12   dn:     0.868   1.968   0.000   0.000   2.836
  P              13   up:     0.872   1.956   0.000   0.000   2.828    -0.656       -0.000
                 13   dn:     0.872   1.956   0.000   0.000   2.828
  P              14   up:     0.868   1.968   0.000   0.000   2.836    -0.672       -0.000
                 14   dn:     0.868   1.968   0.000   0.000   2.836
  P              15   up:     0.873   1.958   0.000   0.000   2.831    -0.662       -0.000
                 15   dn:     0.873   1.958   0.000   0.000   2.831
  P              16   up:     0.872   1.956   0.000   0.000   2.828    -0.656       -0.000
                 16   dn:     0.872   1.956   0.000   0.000   2.828
  P              17   up:     0.868   1.968   0.000   0.000   2.836    -0.672       -0.000
                 17   dn:     0.868   1.968   0.000   0.000   2.836
  P              18   up:     0.872   1.956   0.000   0.000   2.828    -0.656        0.000
                 18   dn:     0.872   1.956   0.000   0.000   2.828
  P              19   up:     0.868   1.968   0.000   0.000   2.836    -0.672       -0.000
                 19   dn:     0.868   1.968   0.000   0.000   2.836
  P              20   up:     0.868   1.968   0.000   0.000   2.836    -0.672       -0.000
                 20   dn:     0.868   1.968   0.000   0.000   2.836
  P              21   up:     0.868   1.968   0.000   0.000   2.836    -0.672       -0.000
                 21   dn:     0.868   1.968   0.000   0.000   2.836
  P              22   up:     0.872   1.956   0.000   0.000   2.828    -0.656       -0.000
                 22   dn:     0.872   1.956   0.000   0.000   2.828
  P              23   up:     0.873   1.958   0.000   0.000   2.831    -0.662       -0.000
                 23   dn:     0.873   1.958   0.000   0.000   2.831
  P              24   up:     0.872   1.956   0.000   0.000   2.828    -0.656       -0.000
                 24   dn:     0.872   1.956   0.000   0.000   2.828
  P              25   up:     0.868   1.968   0.000   0.000   2.836    -0.672       -0.000
                 25   dn:     0.868   1.968   0.000   0.000   2.836
  P              26   up:     0.868   1.968   0.000   0.000   2.836    -0.672       -0.000
                 26   dn:     0.868   1.968   0.000   0.000   2.836
  P              27   up:     0.873   1.958   0.000   0.000   2.831    -0.662       -0.000
                 27   dn:     0.873   1.958   0.000   0.000   2.831
  P              28   up:     0.868   1.968   0.000   0.000   2.836    -0.672       -0.000
                 28   dn:     0.868   1.968   0.000   0.000   2.836
  P              29   up:     0.868   1.968   0.000   0.000   2.836    -0.672       -0.000
                 29   dn:     0.868   1.968   0.000   0.000   2.836
  P              30   up:     0.868   1.968   0.000   0.000   2.836    -0.672       -0.000
                 30   dn:     0.868   1.968   0.000   0.000   2.836
  P              31   up:     0.867   1.970   0.000   0.000   2.837    -0.674        0.000
                 31   dn:     0.867   1.970   0.000   0.000   2.837
  In              1   up:     0.454   0.720   4.995   0.000   6.169     0.663       -0.000
                  1   dn:     0.454   0.720   4.995   0.000   6.169
  In              2   up:     0.456   0.722   4.995   0.000   6.172     0.655        0.000
                  2   dn:     0.456   0.722   4.995   0.000   6.172
  In              3   up:     0.456   0.722   4.995   0.000   6.172     0.655        0.000
                  3   dn:     0.456   0.722   4.995   0.000   6.172
  In              4   up:     0.456   0.722   4.995   0.000   6.172     0.655        0.000
                  4   dn:     0.456   0.722   4.995   0.000   6.172
  In              5   up:     0.460   0.718   4.995   0.000   6.173     0.655       -0.000
                  5   dn:     0.460   0.718   4.995   0.000   6.173
  In              6   up:     0.460   0.718   4.995   0.000   6.173     0.655       -0.000
                  6   dn:     0.460   0.718   4.995   0.000   6.173
  In              7   up:     0.460   0.718   4.995   0.000   6.173     0.655        0.000
                  7   dn:     0.460   0.718   4.995   0.000   6.173
  In              8   up:     0.496   0.728   4.996   0.000   6.219     0.561       -0.000
                  8   dn:     0.496   0.728   4.996   0.000   6.219
  In              9   up:     0.460   0.718   4.995   0.000   6.173     0.655       -0.000
                  9   dn:     0.460   0.718   4.995   0.000   6.173
  In             10   up:     0.496   0.728   4.996   0.000   6.219     0.561        0.000
                 10   dn:     0.495   0.728   4.996   0.000   6.219
  In             11   up:     0.460   0.718   4.995   0.000   6.173     0.655       -0.000
                 11   dn:     0.460   0.718   4.995   0.000   6.173
  In             12   up:     0.460   0.718   4.995   0.000   6.173     0.655       -0.000
                 12   dn:     0.460   0.718   4.995   0.000   6.173
  In             13   up:     0.456   0.722   4.995   0.000   6.172     0.655        0.000
                 13   dn:     0.456   0.722   4.995   0.000   6.172
  In             14   up:     0.456   0.722   4.995   0.000   6.172     0.655        0.000
                 14   dn:     0.456   0.722   4.995   0.000   6.172
  In             15   up:     0.454   0.720   4.995   0.000   6.169     0.663       -0.000
                 15   dn:     0.454   0.720   4.995   0.000   6.169
  In             16   up:     0.456   0.722   4.995   0.000   6.172     0.655        0.000
                 16   dn:     0.456   0.722   4.995   0.000   6.172
  In             17   up:     0.460   0.718   4.995   0.000   6.173     0.655       -0.000
                 17   dn:     0.460   0.718   4.995   0.000   6.173
  In             18   up:     0.460   0.718   4.995   0.000   6.173     0.655        0.000
                 18   dn:     0.460   0.718   4.995   0.000   6.173
  In             19   up:     0.496   0.728   4.996   0.000   6.219     0.561       -0.000
                 19   dn:     0.496   0.728   4.996   0.000   6.219
  In             20   up:     0.460   0.718   4.995   0.000   6.173     0.655        0.000
                 20   dn:     0.460   0.718   4.995   0.000   6.173
  In             21   up:     0.456   0.722   4.995   0.000   6.172     0.655        0.000
                 21   dn:     0.456   0.722   4.995   0.000   6.172
  In             22   up:     0.454   0.720   4.995   0.000   6.169     0.663       -0.000
                 22   dn:     0.454   0.720   4.995   0.000   6.169
  In             23   up:     0.456   0.722   4.995   0.000   6.172     0.655        0.000
                 23   dn:     0.456   0.722   4.995   0.000   6.172
  In             24   up:     0.456   0.722   4.995   0.000   6.172     0.655       -0.000
                 24   dn:     0.456   0.722   4.995   0.000   6.172
  In             25   up:     0.456   0.722   4.995   0.000   6.172     0.655        0.000
                 25   dn:     0.456   0.722   4.995   0.000   6.172
  In             26   up:     0.456   0.722   4.995   0.000   6.172     0.655        0.000
                 26   dn:     0.456   0.722   4.995   0.000   6.172
  In             27   up:     0.456   0.722   4.995   0.000   6.172     0.655        0.000
                 27   dn:     0.456   0.722   4.995   0.000   6.172
  In             28   up:     0.454   0.720   4.995   0.000   6.169     0.663       -0.000
                 28   dn:     0.454   0.720   4.995   0.000   6.169
  In             29   up:     0.496   0.728   4.996   0.000   6.219     0.561        0.000
                 29   dn:     0.495   0.728   4.996   0.000   6.219
  In             30   up:     0.460   0.718   4.995   0.000   6.173     0.655        0.000
                 30   dn:     0.460   0.718   4.995   0.000   6.173
  In             31   up:     0.460   0.718   4.995   0.000   6.173     0.655       -0.000
                 31   dn:     0.460   0.718   4.995   0.000   6.173
  In             32   up:     0.460   0.718   4.995   0.000   6.173     0.655        0.000
                 32   dn:     0.460   0.718   4.995   0.000   6.173
==============================================================================================

                 Bond                   Population        Spin       Length (A)
================================================================================
              P 31 -- In 1                   0.66        -0.00          2.55289
              P 31 -- In 22                  0.66        -0.00          2.55289
              P 31 -- In 15                  0.66        -0.00          2.55289
              P 31 -- In 28                  0.66         0.00          2.55289
              P 13 -- In 14                  0.65         0.00          2.55457
              P 6  -- In 14                  0.65        -0.00          2.55457
              P 8  -- In 16                  0.65        -0.00          2.55457
              P 18 -- In 26                  0.65        -0.00          2.55457
              P 16 -- In 24                  0.65        -0.00          2.55457
              P 9  -- In 27                  0.65         0.00          2.55457
              P 5  -- In 23                  0.65         0.00          2.55457
              P 3  -- In 3                   0.65        -0.00          2.55457
              P 13 -- In 16                  0.65         0.00          2.55457
              P 24 -- In 26                  0.65        -0.00          2.55457
              P 24 -- In 27                  0.65         0.00          2.55457
              P 22 -- In 23                  0.65        -0.00          2.55457
              P 22 -- In 24                  0.65        -0.00          2.55457
              P 3  -- In 4                   0.65        -0.00          2.55457
              P 18 -- In 25                  0.65         0.00          2.55457
              P 9  -- In 25                  0.65         0.00          2.55457
              P 8  -- In 13                  0.65         0.00          2.55457
              P 5  -- In 21                  0.65         0.00          2.55457
              P 6  -- In 13                  0.65        -0.00          2.55457
              P 16 -- In 21                  0.65        -0.00          2.55457
              P 2  -- In 2                   0.65         0.00          2.55457
              P 2  -- In 4                   0.65         0.00          2.55457
              P 1  -- In 3                   0.65        -0.00          2.55457
              P 1  -- In 2                   0.65        -0.00          2.55457
              P 17 -- In 3                   0.65         0.00          2.55495
              P 10 -- In 2                   0.65         0.00          2.55495
              P 4  -- In 4                   0.65         0.00          2.55496
              P 26 -- In 27                  0.65        -0.00          2.55496
              P 21 -- In 24                  0.65         0.00          2.55496
              P 20 -- In 23                  0.65        -0.00          2.55496
              P 25 -- In 26                  0.65         0.00          2.55496
              P 28 -- In 25                  0.65         0.00          2.55496
              P 30 -- In 21                  0.65        -0.00          2.55496
              P 29 -- In 13                  0.65         0.00          2.55496
              P 14 -- In 16                  0.65         0.00          2.55496
              P 12 -- In 14                  0.65         0.00          2.55496
              P 25 -- In 11                  0.66         0.00          2.55607
              P 14 -- In 6                   0.66         0.00          2.55607
              P 26 -- In 18                  0.66         0.00          2.55607
              P 21 -- In 7                   0.66        -0.00          2.55607
              P 20 -- In 20                  0.66        -0.00          2.55607
              P 12 -- In 12                  0.66        -0.00          2.55607
              P 29 -- In 30                  0.66         0.00          2.55607
              P 29 -- In 32                  0.66         0.00          2.55607
              P 30 -- In 32                  0.66         0.00          2.55607
              P 30 -- In 31                  0.66         0.00          2.55607
              P 28 -- In 31                  0.66        -0.00          2.55607
              P 10 -- In 11                  0.66        -0.00          2.55607
              P 28 -- In 30                  0.66         0.00          2.55607
              P 4  -- In 6                   0.66        -0.00          2.55607
              P 17 -- In 20                  0.66         0.00          2.55607
              P 17 -- In 18                  0.66         0.00          2.55607
              P 10 -- In 12                  0.66        -0.00          2.55607
              P 4  -- In 7                   0.66        -0.00          2.55607
              P 26 -- In 17                  0.66         0.00          2.55607
              P 25 -- In 9                   0.66         0.00          2.55607
              P 20 -- In 17                  0.66        -0.00          2.55607
              P 12 -- In 9                   0.66        -0.00          2.55607
              P 21 -- In 5                   0.66         0.00          2.55607
              P 14 -- In 5                   0.66        -0.00          2.55607
              P 30 -- In 22                  0.65        -0.00          2.55912
              P 29 -- In 15                  0.65         0.00          2.55912
              P 28 -- In 28                  0.65         0.00          2.55912
              P 25 -- In 28                  0.65        -0.00          2.55912
              P 12 -- In 15                  0.65        -0.00          2.55912
              P 21 -- In 22                  0.65        -0.00          2.55912
              P 20 -- In 22                  0.65         0.00          2.55912
              P 14 -- In 15                  0.65         0.00          2.55912
              P 26 -- In 28                  0.65         0.00          2.55912
              P 17 -- In 1                   0.65         0.00          2.55912
              P 10 -- In 1                   0.65         0.00          2.55912
              P 4  -- In 1                   0.65         0.00          2.55912
              P 11 -- In 21                  0.66         0.00          2.55976
              P 19 -- In 13                  0.66         0.00          2.55976
              P 7  -- In 25                  0.66         0.00          2.55976
              P 7  -- In 4                   0.66        -0.00          2.55976
              P 11 -- In 16                  0.66         0.00          2.55976
              P 11 -- In 2                   0.66        -0.00          2.55976
              P 19 -- In 3                   0.66        -0.00          2.55976
              P 19 -- In 24                  0.66         0.00          2.55976
              P 7  -- In 23                  0.66         0.00          2.55976
              P 11 -- In 27                  0.66        -0.00          2.55976
              P 19 -- In 26                  0.66         0.00          2.55976
              P 7  -- In 14                  0.66         0.00          2.55976
              P 27 -- In 5                   0.63         0.00          2.57125
              P 23 -- In 9                   0.63         0.00          2.57125
              P 15 -- In 17                  0.63         0.00          2.57125
              P 23 -- In 20                  0.63         0.00          2.57125
              P 23 -- In 7                   0.63        -0.00          2.57125
              P 15 -- In 12                  0.63         0.00          2.57125
              P 15 -- In 6                   0.63         0.00          2.57125
              P 27 -- In 18                  0.63        -0.00          2.57125
              P 27 -- In 11                  0.63        -0.00          2.57125
              P 27 -- In 32                  0.63         0.00          2.57125
              P 23 -- In 30                  0.63         0.00          2.57125
              P 15 -- In 31                  0.63         0.00          2.57125
              P 13 -- In 31                  0.62        -0.00          2.57446
              P 16 -- In 18                  0.62         0.00          2.57446
              P 18 -- In 20                  0.62         0.00          2.57446
              P 9  -- In 12                  0.62        -0.00          2.57446
              P 6  -- In 7                   0.62         0.00          2.57446
              P 5  -- In 6                   0.62        -0.00          2.57446
              P 22 -- In 30                  0.62        -0.00          2.57446
              P 2  -- In 17                  0.62        -0.00          2.57446
              P 8  -- In 11                  0.62        -0.00          2.57446
              P 24 -- In 32                  0.62        -0.00          2.57446
              P 1  -- In 5                   0.62        -0.00          2.57446
              P 3  -- In 9                   0.62        -0.00          2.57446
              P 18 -- In 19                  0.64         0.00          2.58628
              P 6  -- In 8                   0.64        -0.00          2.58628
              P 5  -- In 8                   0.64         0.00          2.58628
              P 9  -- In 10                  0.64         0.00          2.58628
              P 8  -- In 10                  0.64         0.00          2.58628
              P 16 -- In 19                  0.64         0.00          2.58628
              P 2  -- In 19                  0.64         0.00          2.58628
              P 3  -- In 10                  0.64         0.00          2.58628
              P 1  -- In 8                   0.64         0.00          2.58628
              P 22 -- In 29                  0.64         0.00          2.58628
              P 24 -- In 29                  0.64         0.00          2.58628
              P 13 -- In 29                  0.64         0.00          2.58628
================================================================================

 Hirshfeld supercell size:           2           2           2
Standard grid dimensions: 240 240 240
Fine grid dimensions:     240 240 240


     Hirshfeld Analysis
     ------------------
Species   Ion     Hirshfeld Charge (e)  Spin (hbar/2)
===================================================
  P        1                -0.24       -0.00
  P        2                -0.24       -0.00
  P        3                -0.24       -0.00
  P        4                -0.24       -0.00
  P        5                -0.24       -0.00
  P        6                -0.24       -0.00
  P        7                -0.24        0.00
  P        8                -0.24       -0.00
  P        9                -0.24       -0.00
  P       10                -0.24       -0.00
  P       11                -0.24        0.00
  P       12                -0.24       -0.00
  P       13                -0.24       -0.00
  P       14                -0.24       -0.00
  P       15                -0.23       -0.00
  P       16                -0.24       -0.00
  P       17                -0.24       -0.00
  P       18                -0.24       -0.00
  P       19                -0.24        0.00
  P       20                -0.24       -0.00
  P       21                -0.24       -0.00
  P       22                -0.24       -0.00
  P       23                -0.23       -0.00
  P       24                -0.24       -0.00
  P       25                -0.24       -0.00
  P       26                -0.24       -0.00
  P       27                -0.23       -0.00
  P       28                -0.24       -0.00
  P       29                -0.24       -0.00
  P       30                -0.24       -0.00
  P       31                -0.24       -0.00
  In       1                 0.24       -0.00
  In       2                 0.23        0.00
  In       3                 0.23        0.00
  In       4                 0.23        0.00
  In       5                 0.24        0.00
  In       6                 0.24        0.00
  In       7                 0.24        0.00
  In       8                 0.19       -0.00
  In       9                 0.24        0.00
  In      10                 0.19       -0.00
  In      11                 0.24        0.00
  In      12                 0.24        0.00
  In      13                 0.23        0.00
  In      14                 0.23        0.00
  In      15                 0.24       -0.00
  In      16                 0.23        0.00
  In      17                 0.24        0.00
  In      18                 0.24        0.00
  In      19                 0.19       -0.00
  In      20                 0.24        0.00
  In      21                 0.23        0.00
  In      22                 0.24       -0.00
  In      23                 0.23        0.00
  In      24                 0.23        0.00
  In      25                 0.23        0.00
  In      26                 0.23        0.00
  In      27                 0.23        0.00
  In      28                 0.24       -0.00
  In      29                 0.19       -0.00
  In      30                 0.24        0.00
  In      31                 0.24        0.00
  In      32                 0.24        0.00
===================================================

 
 A BibTeX formatted list of references used in this run has been written to 
 P_Vacancy_Migration_5->3_Singlepoints_0.bib
 
Initialisation time =     29.93 s
Calculation time    =   8659.14 s
Finalisation time   =    158.55 s
Total time          =   8847.62 s
Peak Memory Use     = 9607064 kB
 
Overall parallel efficiency rating: Terrible (34%)
 
Data was distributed by:-
G-vector (3-way); efficiency rating: Poor (37%)
k-point (36-way); efficiency rating: Good (78%)
