 +-------------------------------------------------+
 |                                                 |
 |      CCC   AA    SSS  TTTTT  EEEEE  PPPP        |
 |     C     A  A  S       T    E      P   P       |
 |     C     AAAA   SS     T    EEE    PPPP        |
 |     C     A  A     S    T    E      P           |
 |      CCC  A  A  SSS     T    EEEEE  P           |
 |                                                 |
 +-------------------------------------------------+
 |                                                 |
 | Welcome to Academic Release CASTEP version 24.1 |
 | Ab Initio Total Energy Program                  |
 |                                                 |
 | Authors:                                        |
 | M. Segall, M. Probert, C. Pickard, P. Hasnip,   |
 | S. Clark, K. Refson, J. R. Yates,               |
 | A. Bartok-Partay, M. Payne                      |
 |                                                 |
 | Contributors:                                   |
 | P. Lindan, P. Haynes, J. White, V. Milman,      |
 | N. Govind, M. Gibson, P. Tulip, V. Cocula,      |
 | B. Montanari, D. Quigley, M. Glover,            |
 | L. Bernasconi, A. Perlov, M. Plummer,           |
 | E. McNellis, J. Meyer, J. Gale, D. Jochym       |
 | J. Aarons, B. Walker, R. Gillen, D. Jones       |
 | T. Green, I. J. Bush, C. J. Armstrong,          |
 | E. J. Higgins, E. L. Brown, M. S. McFly,        |
 | J. Wilkins, B-C. Shih, P. J. P. Byrne,          |
 | R. J. Maurer, J. C. Womack, J. Dziedzic,        |
 | L. LeBlanc, T. K. Stenczel, J. Kermode,         |
 | S. Sturniolo, B. Shi, B. Durham, M. Evans,      |
 | M. J. Smith, A. Tamerus, Z. Hawkhead,           |
 | V. Ravindran, T. Hollins, S. A. Joyce,          |
 | R. T. Strong, A. M. Reilly, S. J. Donaldson     |
 |                                                 |
 | Copyright (c) 2000 - 2023                       |
 |                                                 |
 |     Distributed under license from Cambridge    |
 |     Enterprise for academic use only.           |
 |                                                 |
 | Please cite                                     |
 |                                                 |
 |     "First principles methods using CASTEP"     |
 |                                                 |
 |         Zeitschrift fuer Kristallographie       |
 |           220(5-6) pp. 567-570 (2005)           |
 |                                                 |
 | S. J. Clark, M. D. Segall, C. J. Pickard,       |
 | P. J. Hasnip, M. J. Probert, K. Refson,         |
 | M. C. Payne                                     |
 |                                                 |
 |       in all publications arising from          |
 |              your use of CASTEP                 |
 |                                                 |
 +-------------------------------------------------+
 |                                                 |
 |              http://www.castep.org              |
 |                                                 |
 +-------------------------------------------------+



 Compiled for  GNU 11.2.0 on 04-04-2024 18:39:17
 from code version 6355fd106 Castep241_branch Thu Mar 7 17:56:19 2024 +0000
 Compiler: GNU Fortran 11.2.0; Optimisation: FAST
 Comms   : MPI VERSION : CRAY MPICH version 8.1.23.14 (ANL base 3.4a2)
 MATHLIBS: default (LAPACK version 3.10.1)
 FFT Lib : fftw3 version commercial-fftw-3.3.10-sse2-avx-avx2-avx2_128
 Fundamental constants values: CODATA 2018

 Run started: Mon, 07 Apr 2025 12:34:50 +0100

 Atomic calculation performed for P: 1s2 2s2 2p6 3s2 3p3

 Converged in 47 iterations to an ae energy of -9309.074 eV

   ============================================================                
   | Pseudopotential Report - Date of generation  7-04-2025   |                
   ------------------------------------------------------------                
   | Element: P Ionic charge:  5.00 Level of theory: RSCAN    |                
   | Atomic Solver: Koelling-Harmon                           |                
   |                                                          |                
   |               Reference Electronic Structure             |                
   |         Orbital         Occupation         Energy        |                
   |            3s              2.000           -0.535        |                
   |            3p              3.000           -0.209        |                
   |                                                          |                
   |                 Pseudopotential Definition               |                
   |        Beta     l      e      Rc     scheme   norm       |                
   |          1      0   -0.535   1.807     qc      0         |                
   |          2      0    0.250   1.807     qc      0         |                
   |          3      1   -0.209   1.807     qc      0         |                
   |          4      1    0.250   1.807     qc      0         |                
   |          5      2    0.000   1.807     qc      0         |                
   |          6      2    0.250   1.807     qc      0         |                
   |         loc     3    0.000   1.807     pn      0         |                
   |                                                          |                
   | Augmentation charge Rinner = 1.263                       |                
   | Partial core correction Rc = 1.263                       |                
   ------------------------------------------------------------                
   | "3|1.8|4|4|5|30:31:32"                                   |                
   ------------------------------------------------------------                
   |      Author: Chris J. Pickard, Cambridge University      |                
   ============================================================                
 Warning: otfg_output_psp cannot write out meta-GGA pseudopotentials presently.

 Atomic calculation performed for In:
 1s2 2s2 2p6 3s2 3p6 3d10 4s2 4p6 4d10 5s2 5p1

 Converged in 84 iterations to an ae energy of -160093.328 eV

   ============================================================                
   | Pseudopotential Report - Date of generation  7-04-2025   |                
   ------------------------------------------------------------                
   | Element: In Ionic charge: 13.00 Level of theory: RSCAN   |                
   | Atomic Solver: Koelling-Harmon                           |                
   |                                                          |                
   |               Reference Electronic Structure             |                
   |         Orbital         Occupation         Energy        |                
   |            4d             10.000           -0.711        |                
   |            5s              2.000           -0.313        |                
   |            5p              1.000           -0.095        |                
   |                                                          |                
   |                 Pseudopotential Definition               |                
   |        Beta     l      e      Rc     scheme   norm       |                
   |          1      0   -0.313   2.501     qc      0         |                
   |          2      0    0.250   2.501     qc      0         |                
   |          3      1   -0.095   2.501     qc      0         |                
   |          4      1    0.250   2.501     qc      0         |                
   |          5      2   -0.711   2.207     qc      0         |                
   |          6      2    0.250   2.207     qc      0         |                
   |         loc     3    0.000   2.501     pn      0         |                
   |                                                          |                
   | Augmentation charge Rinner = 1.504                       |                
   | Partial core correction Rc = 1.504                       |                
   ------------------------------------------------------------                
   | "3|2.5|2.5|1.5|7|8|9|50:51:42U2.2U2.2"                   |                
   ------------------------------------------------------------                
   |      Author: Chris J. Pickard, Cambridge University      |                
   ============================================================                
 Warning: otfg_output_psp cannot write out meta-GGA pseudopotentials presently.

 Pseudo atomic calculation performed for P 3s2 3p3

 Converged in 23 iterations to a total energy of -208.0292 eV

 Pseudo atomic calculation performed for In 4d10 5s2 5p1

 Converged in 42 iterations to a total energy of -1747.4501 eV
 Calculation parallelised over 120 processes.
 Data is distributed by G-vector(6-way) and k-point(20-way)
 Each process may use up to 16 threads.

 ************************************ Title ************************************
 

 ***************************** General Parameters ******************************
  
 output verbosity                               : normal  (1)
 write checkpoint data to                       : 90deg_Quadrupole_Migration_Endpoint.check
 type of calculation                            : geometry optimization
 stress calculation                             : off
 density difference calculation                 : off
 electron localisation func (ELF) calculation   : off
 Hirshfeld analysis                             : on
 polarisation (Berry phase) analysis            : off
 molecular orbital projected DOS                : off
 deltaSCF calculation                           : off
 unlimited duration calculation
 timing information                             : on
 memory usage estimate                          : on
 write extra output files                       : on
 write final potential to formatted file        : off
 write final density to formatted file          : off
 write BibTeX reference list                    : on
 write OTFG pseudopotential files               : on
 write electrostatic potential file             : on
 write bands file                               : on
 checkpoint writing                             : off
  
 output         length unit                     : A
 output           mass unit                     : amu
 output           time unit                     : ps
 output         charge unit                     : e
 output           spin unit                     : hbar/2
 output         energy unit                     : eV
 output          force unit                     : eV/A
 output       velocity unit                     : A/ps
 output       pressure unit                     : GPa
 output     inv_length unit                     : 1/A
 output      frequency unit                     : cm-1
 output force constant unit                     : eV/A**2
 output         volume unit                     : A**3
 output   IR intensity unit                     : (D/A)**2/amu
 output         dipole unit                     : D
 output         efield unit                     : eV/A/e
 output        entropy unit                     : J/mol/K
 output    efield chi2 unit                     : pm/V
  
 wavefunctions paging                           : none
 random number generator seed                   :  123450264
 data distribution                              : optimal for this architecture
 optimization strategy                          : balance speed and memory

 *********************** Exchange-Correlation Parameters ***********************
  
 using functional                               : RSCAN
 relativistic treatment                         : Koelling-Harmon
 DFT+D: Semi-empirical dispersion correction    : off

 ************************* Pseudopotential Parameters **************************
  
 pseudopotential representation                 : reciprocal space
 <beta|phi> representation                      : reciprocal space
 spin-orbit coupling                            : off

 **************************** Basis Set Parameters *****************************
  
 plane wave basis set cut-off                   :   900.0000   eV
 size of standard grid                          :     2.0000
 size of   fine   gmax                          :    30.7390   1/A
 finite basis set correction                    : none

 **************************** Electronic Parameters ****************************
  
 number of  electrons                           :  864.0    
 net charge of system                           :  0.000    
 treating system as non-spin-polarized
 number of bands                                :        518

 ********************* Electronic Minimization Parameters **********************
  
 Method: Treating system as metallic with density mixing treatment of electrons,
         and number of  SD  steps               :          1
         and number of  CG  steps               :          4
  
 total energy / atom convergence tol.           : 0.1000E-07   eV
 eigen-energy convergence tolerance             : 0.2222E-08   eV
 max force / atom convergence tol.              : ignored
 convergence tolerance window                   :          3   cycles
 max. number of SCF cycles                      :         50
 number of fixed-spin iterations                :         10
 smearing scheme                                : Gaussian
 smearing width                                 : 0.2000       eV
 Fermi energy convergence tolerance             : 0.2721E-13   eV
 periodic dipole correction                     : NONE

 ************************** Density Mixing Parameters **************************
  
 density-mixing scheme                          : Pulay
 max. length of mixing history                  :         15
 charge density mixing amplitude                : 0.5000    
 cut-off energy for mixing                      :  900.0       eV

 *********************** Population Analysis Parameters ************************
  
 Population analysis with cutoff                :  3.000       A
 Population analysis output                     : summary and pdos components

 ********************** Geometry Optimization Parameters ***********************
  
 optimization method                            : LBFGS
 max. no. of LBFGS updates                      : unbounded
 preconditioned LBFGS is activated
 preconditioner type                            : EXP
     stabilization constant                     :     0.1000
     parameter A                                :     3.0000
     nearest neighbor distance                  : automatic
     cut-off distance                           : automatic
     parameter mu                               : automatic
 variable cell method                           : fixed basis quality
 max. number of steps                           :         30
 estimated bulk modulus                         :  500.0       GPa
 estimated <frequency>                          :  1668.       cm-1
 geom line minimiser                            : on
 with line minimiser tolerance                  :     0.4000
 total energy convergence tolerance             : 0.2000E-04   eV/atom
        max ionic |force| tolerance             : 0.1000E-02   eV/A
 max ionic |displacement| tolerance             : 0.1000E-02   A
   max |stress component| tolerance             : 0.1000       GPa
 convergence tolerance window                   :          2   steps
 backup results every                           :          5   steps
 write geom trajectory file                     : on

 *******************************************************************************
  

                           -------------------------------
                                      Unit Cell
                           -------------------------------
        Real Lattice(A)                      Reciprocal Lattice(1/A)
    14.4540490    20.4411120     0.0000000        0.217350353   0.153689910   0.000000000
    14.4540490   -20.4411120     0.0000000        0.217350353  -0.153689910   0.000000000
     0.0000000     0.0000000     4.1725250        0.000000000   0.000000000   1.505847252

                       Lattice parameters(A)       Cell Angles
                    a =     25.035147          alpha =   90.000000
                    b =     25.035147          beta  =   90.000000
                    c =      4.172525          gamma =  109.471220

                       Current cell volume =          2465.602056       A**3
                                   density =             2.838254   AMU/A**3
                                           =             4.713031     g/cm^3

                           -------------------------------
                                     Cell Contents
                           -------------------------------
                         Total number of ions in cell =   96
                      Total number of species in cell =    2
                        Max number of any one species =   48

            xxxxxxxxxxxxxxxxxxxxxxxxxxxxxxxxxxxxxxxxxxxxxxxxxxxxxxxxxxxx
            x  Element    Atom        Fractional coordinates of atoms  x
            x            Number           u          v          w      x
            x----------------------------------------------------------x
            x  P            1         0.271734   0.309182  -0.139346   x 
            x  P            2         0.199567   0.235704   0.665503   x 
            x  P            3         0.378595   0.241468   0.467160   x 
            x  P            4         0.506417   0.365300  -0.037844   x 
            x  P            5         0.409868   0.105700  -0.016748   x 
            x  P            6         0.537287   0.228681   0.479283   x 
            x  P            7         0.571700   0.094680  -0.014898   x 
            x  P            8         0.447101   0.971640   0.487477   x 
            x  P            9         0.608410   0.960766   0.484782   x 
            x  P           10         0.733522   0.084324  -0.009477   x 
            x  P           11         0.638382   0.825612  -0.016881   x 
            x  P           12         0.773451   0.951072   0.482909   x 
            x  P           13         0.529264   0.553904  -0.052727   x 
            x  P           14         0.402298   0.428645   0.429752   x 
            x  P           15         0.631437   0.488851   0.464741   x 
            x  P           16         0.755466   0.611837  -0.028540   x 
            x  P           17         0.662858   0.352551  -0.018796   x 
            x  P           18         0.788057   0.477743   0.490425   x 
            x  P           19         0.820053   0.344215   0.002871   x 
            x  P           20         0.696589   0.217957   0.489123   x 
            x  P           21         0.856404   0.212490   0.519177   x 
            x  P           22         0.977918   0.338450   0.027693   x 
            x  P           23         0.896904   0.083943   0.036009   x 
            x  P           24         0.018448   0.210443   0.542117   x 
            x  P           25         0.779177   0.799378  -0.112509   x 
            x  P           26         0.654314   0.677567   0.446512   x 
            x  P           27         0.881256   0.731379   0.482666   x 
            x  P           28         0.004494   0.854540   0.030029   x 
            x  P           29         0.914196   0.601186   0.000570   x 
            x  P           30         0.040621   0.724946   0.529518   x 
            x  P           31         0.071996   0.595337   0.024263   x 
            x  P           32         0.945607   0.469650   0.512799   x 
            x  P           33         0.102752   0.465334   0.534506   x 
            x  P           34         0.228672   0.588219  -0.002504   x 
            x  P           35         0.134920   0.337311   0.065007   x 
            x  P           36         0.259534   0.456221   0.467531   x 
            x  P           37         0.077182   0.101301   0.094423   x 
            x  P           38         0.952155   0.971713   0.636886   x 
            x  P           39         0.125298   0.982674   0.539494   x 
            x  P           40         0.249908   0.111004   0.045664   x 
            x  P           41         0.162898   0.852369   0.025218   x 
            x  P           42         0.286703   0.978466   0.516865   x 
            x  P           43         0.322162   0.845864   0.002201   x 
            x  P           44         0.197646   0.720808   0.510864   x 
            x  P           45         0.354479   0.711354   0.490056   x 
            x  P           46         0.479951   0.836715  -0.017148   x 
            x  P           47         0.384667   0.575879  -0.027724   x 
            x  P           48         0.510245   0.700340   0.470937   x 
            x  In           1         0.236669   0.394543  -0.035031   x 
            x  In           2         0.119011   0.276899   0.571384   x 
            x  In           3         0.336444   0.321731   0.383171   x 
            x  In           4         0.464442   0.446915  -0.066681   x 
            x  In           5         0.353854   0.176868  -0.023191   x 
            x  In           6         0.484172   0.300964   0.465556   x 
            x  In           7         0.515022   0.164649  -0.019677   x 
            x  In           8         0.390520   0.041473   0.485945   x 
            x  In           9         0.552125   0.030902   0.485219   x 
            x  In          10         0.676504   0.153846  -0.011276   x 
            x  In          11         0.584319   0.896895  -0.016051   x 
            x  In          12         0.714058   0.019780   0.487988   x 
            x  In          13         0.488071   0.636029  -0.031899   x 
            x  In          14         0.363720   0.512346   0.470105   x 
            x  In          15         0.590248   0.570840   0.448071   x 
            x  In          16         0.715238   0.694347  -0.054272   x 
            x  In          17         0.610702   0.425101  -0.034129   x 
            x  In          18         0.735194   0.548953   0.472853   x 
            x  In          19         0.765995   0.414463  -0.008934   x 
            x  In          20         0.641634   0.288552   0.481872   x 
            x  In          21         0.799744   0.280787   0.503179   x 
            x  In          22         0.922777   0.407000   0.012955   x 
            x  In          23         0.836504   0.149243   0.019829   x 
            x  In          24         0.959404   0.275910   0.528633   x 
            x  In          25         0.744007   0.884737  -0.025214   x 
            x  In          26         0.614341   0.760556   0.480911   x 
            x  In          27         0.842175   0.812836   0.384349   x 
            x  In          28         0.932925   0.906120   0.146325   x 
            x  In          29         0.859457   0.670023  -0.015458   x 
            x  In          30        -0.015128   0.792039   0.524984   x 
            x  In          31         0.017173   0.663435   0.028460   x 
            x  In          32         0.891332   0.538837   0.500403   x 
            x  In          33         0.048162   0.533646   0.524744   x 
            x  In          34         0.175125   0.658281   0.010484   x 
            x  In          35         0.079305   0.403987   0.037837   x 
            x  In          36         0.205959   0.526043   0.496960   x 
            x  In          37         1.000978   0.148403   0.042292   x 
            x  In          38         0.878153   0.020057   0.535508   x 
            x  In          39         0.055529   0.037664   0.592339   x 
            x  In          40         0.182042   0.167590   0.136882   x 
            x  In          41         0.106283   0.920383   0.036251   x 
            x  In          42         0.229510   0.046758   0.543716   x 
            x  In          43         0.266325   0.915124   0.016294   x 
            x  In          44         0.142954   0.789890   0.524473   x 
            x  In          45         0.301174   0.782521   0.501998   x 
            x  In          46         0.425787   0.907956  -0.011850   x 
            x  In          47         0.332380   0.648019  -0.010554   x 
            x  In          48         0.457989   0.772822   0.482361   x 
            xxxxxxxxxxxxxxxxxxxxxxxxxxxxxxxxxxxxxxxxxxxxxxxxxxxxxxxxxxxx


                         No user defined ionic velocities

                           -------------------------------
                                   Details of Species
                           -------------------------------

                               Mass of species in AMU
                                    P   30.9737600
                                    In  114.8180000

                          Electric Quadrupole Moment (Barn)
                                    P    1.0000000 No Isotope Defined
                                    In    0.7700000 Isotope115

                          Files used for pseudopotentials:
                                    P 3|1.8|4|4|5|30:31:32
                                    In 3|2.5|2.5|1.5|7|8|9|50:51:42U2.2U2.2

                           -------------------------------
                              k-Points For BZ Sampling
                           -------------------------------
                       MP grid size for SCF calculation is  2  2  8
                            with an offset of   0.250  0.250  0.062
                       Number of kpoints used =            20

                           -------------------------------
                               Symmetry and Constraints
                           -------------------------------

                      Maximum deviation from symmetry =  0.00000         ANG

                      Number of symmetry operations   =           1
                      Number of ionic constraints     =           3
                      Point group of crystal =     1: C1, 1, 1
                      Space group of crystal =     1: P1, P 1

             Set iprint > 1 for details on symmetry rotations/translations

                         Centre of mass is constrained
             Set iprint > 1 for details of linear ionic constraints

                         Number of cell constraints= 6
                         Cell constraints are:  0 0 0 0 0 0

                         External pressure/stress (GPa)
                          0.00000   0.00000   0.00000
                                    0.00000   0.00000
                                              0.00000
 
+---------------- MEMORY AND SCRATCH DISK ESTIMATES PER PROCESS --------------+
|                                                     Memory          Disk    |
| Baseline code, static data and system overhead      368.0 MB         0.0 MB |
| BLAS internal memory storage                          0.0 MB         0.0 MB |
| Model and support data                             3663.9 MB         0.0 MB |
| Electronic energy minimisation requirements         952.5 MB         0.0 MB |
| Force calculation requirements                       70.0 MB         0.0 MB |
|                                               ----------------------------- |
| Approx. total storage required per process         4984.3 MB         0.0 MB |
|                                                                             |
| Requirements will fluctuate during execution and may exceed these estimates |
+-----------------------------------------------------------------------------+
Calculating approximate eigenstates for fixed initial Hamiltonian
Cut-off for approx. calculation is   89.988 eV
Improving approx. states at cut-off of  450.000 eV
Resetting cut-off to  900.000 eV
Calculating total energy with cut-off of  900.000 eV.
------------------------------------------------------------------------ <-- SCF
SCF loop      Energy           Fermi           Energy gain       Timer   <-- SCF
                               energy          per atom          (sec)   <-- SCF
------------------------------------------------------------------------ <-- SCF
Initial  -9.45676929E+004  0.00000000E+000                       365.81  <-- SCF
      1  -9.42033026E+004  2.90316509E+000  -3.79573283E+000     699.82  <-- SCF
      2  -9.42037554E+004  2.90247855E+000   4.71675994E-003     934.72  <-- SCF
      3  -9.43038376E+004  3.14013492E+000   1.04252244E+000    1195.80  <-- SCF
      4  -9.43216367E+004  3.20475441E+000   1.85408165E-001    1578.23  <-- SCF
      5  -9.43125089E+004  3.51139510E+000  -9.50821774E-002    1841.41  <-- SCF
      6  -9.43124288E+004  3.57338211E+000  -8.33429703E-004    2115.31  <-- SCF
      7  -9.43122095E+004  3.60905086E+000  -2.28468867E-003    2410.06  <-- SCF
      8  -9.43143232E+004  3.62129101E+000   2.20171790E-002    2674.41  <-- SCF
      9  -9.43144335E+004  3.59332703E+000   1.14971913E-003    2948.99  <-- SCF
     10  -9.43144394E+004  3.59888035E+000   6.11248831E-005    3225.34  <-- SCF
     11  -9.43144540E+004  3.59467210E+000   1.52446060E-004    3494.37  <-- SCF
     12  -9.43144620E+004  3.59608645E+000   8.28559117E-005    3765.69  <-- SCF
     13  -9.43144632E+004  3.59712497E+000   1.22483167E-005    4035.70  <-- SCF
     14  -9.43144632E+004  3.59652915E+000  -1.25286366E-007    4303.92  <-- SCF
     15  -9.43144631E+004  3.59644657E+000  -1.54602643E-007    4545.60  <-- SCF
     16  -9.43144631E+004  3.59643085E+000   3.96660950E-008    4761.33  <-- SCF
     17  -9.43144631E+004  3.59653095E+000  -3.38616433E-008    4990.99  <-- SCF
     18  -9.43144631E+004  3.59655603E+000   3.40395240E-008    5201.08  <-- SCF
     19  -9.43144631E+004  3.59657326E+000   5.17078414E-009    5395.43  <-- SCF
     20  -9.43144631E+004  3.59658083E+000   1.48826807E-009    5582.70  <-- SCF
------------------------------------------------------------------------ <-- SCF
 
Final energy, E             =  -94314.43903950     eV
Final free energy (E-TS)    =  -94314.46314400     eV
(energies not corrected for finite basis set)
 
NB est. 0K energy (E-0.5TS)      =  -94314.45109175     eV
 
 
+---------------- MEMORY AND SCRATCH DISK ESTIMATES PER PROCESS --------------+
|                                                     Memory          Disk    |
| Model and support data                             2401.6 MB         0.0 MB |
| Electronic energy minimisation requirements         952.5 MB         0.0 MB |
| Geometry minimisation requirements                 1162.5 MB         0.0 MB |
|                                               ----------------------------- |
| Approx. total storage required per process         4516.5 MB         0.0 MB |
|                                                                             |
| Requirements will fluctuate during execution and may exceed these estimates |
+-----------------------------------------------------------------------------+
 

 ************************************** Forces **************************************
 *                                                                                  *
 *                           Cartesian components (eV/A)                            *
 * -------------------------------------------------------------------------------- *
 *                         x                    y                    z              *
 *                                                                                  *
 * P               1      0.00816              0.02352             -0.12456         *
 * P               2      0.06204              0.05577              0.13408         *
 * P               3      0.03039             -0.04880             -0.02037         *
 * P               4     -0.11271             -0.01710              0.00690         *
 * P               5      0.01822             -0.05760             -0.02249         *
 * P               6     -0.05863             -0.04366             -0.00886         *
 * P               7     -0.01059             -0.04715             -0.00454         *
 * P               8      0.03156             -0.04706             -0.00568         *
 * P               9      0.00676             -0.07415              0.00634         *
 * P              10     -0.01511             -0.03670             -0.00240         *
 * P              11     -0.02886             -0.08505             -0.02015         *
 * P              12      0.02699             -0.05885             -0.01250         *
 * P              13     -0.14009              0.00613             -0.02223         *
 * P              14     -0.03584              0.03703             -0.09051         *
 * P              15     -0.09291              0.02253              0.00803         *
 * P              16     -0.02802              0.00518              0.02852         *
 * P              17     -0.07666              0.00067             -0.00735         *
 * P              18     -0.07921              0.02744             -0.00317         *
 * P              19     -0.04032              0.02593             -0.00574         *
 * P              20     -0.03675              0.01353             -0.00629         *
 * P              21     -0.00961             -0.00347             -0.01253         *
 * P              22      0.00484              0.05372             -0.02099         *
 * P              23      0.04528             -0.04989              0.01247         *
 * P              24      0.01036              0.02477             -0.00233         *
 * P              25     -0.10019              0.08403              0.04902         *
 * P              26     -0.12042              0.01761             -0.02845         *
 * P              27     -0.01434              0.00546              0.00213         *
 * P              28      0.08867             -0.03217             -0.01118         *
 * P              29     -0.06803              0.07432             -0.01004         *
 * P              30      0.04285              0.06577             -0.00770         *
 * P              31      0.01599              0.07602              0.00566         *
 * P              32     -0.03066              0.06628             -0.01334         *
 * P              33      0.01604              0.07354              0.01402         *
 * P              34      0.00810              0.05781              0.00987         *
 * P              35      0.00912              0.03445             -0.01534         *
 * P              36     -0.00363              0.09617              0.05202         *
 * P              37      0.11514              0.02651              0.09246         *
 * P              38      0.14733              0.10072             -0.01548         *
 * P              39      0.10029             -0.01189              0.00444         *
 * P              40      0.09459             -0.04550              0.00910         *
 * P              41      0.13488              0.07815             -0.01080         *
 * P              42      0.09627             -0.03232              0.00562         *
 * P              43      0.03971              0.01061              0.00517         *
 * P              44      0.03300              0.07133              0.00437         *
 * P              45     -0.00322              0.01826              0.00208         *
 * P              46      0.00834             -0.02222             -0.00686         *
 * P              47     -0.06692              0.04902             -0.00606         *
 * P              48     -0.06028             -0.01629             -0.01129         *
 * In              1     -0.04268             -0.09120             -0.00465         *
 * In              2     -0.04553             -0.05251             -0.00409         *
 * In              3     -0.01580              0.04508              0.04184         *
 * In              4      0.07271              0.06254              0.05183         *
 * In              5     -0.06823              0.06278              0.02336         *
 * In              6      0.10113              0.02381             -0.01160         *
 * In              7      0.05015              0.04646              0.00984         *
 * In              8     -0.05556              0.01635              0.01832         *
 * In              9     -0.00047              0.02904              0.00610         *
 * In             10      0.02714             -0.00853              0.00424         *
 * In             11     -0.01199              0.10284              0.01575         *
 * In             12      0.02290              0.11046              0.01121         *
 * In             13      0.05595              0.00050              0.01768         *
 * In             14     -0.00195             -0.10628             -0.01310         *
 * In             15      0.11894             -0.00432              0.00204         *
 * In             16      0.07126             -0.07098             -0.04747         *
 * In             17      0.09927             -0.00941              0.00758         *
 * In             18      0.10819             -0.04696             -0.00688         *
 * In             19      0.06843             -0.01478              0.00214         *
 * In             20      0.06160             -0.01087              0.00264         *
 * In             21      0.06521             -0.01881              0.01123         *
 * In             22      0.03985             -0.04390              0.00898         *
 * In             23      0.02479              0.07997              0.01078         *
 * In             24      0.01885             -0.09754              0.00725         *
 * In             25      0.00146              0.10773              0.00033         *
 * In             26      0.05805              0.06739             -0.01326         *
 * In             27      0.06153             -0.13582             -0.00556         *
 * In             28     -0.03343              0.01276             -0.02112         *
 * In             29      0.09251              0.01843             -0.01229         *
 * In             30     -0.02151             -0.09318              0.00042         *
 * In             31     -0.00230             -0.08588             -0.01224         *
 * In             32      0.08010             -0.05246              0.01178         *
 * In             33      0.00804             -0.04910             -0.00094         *
 * In             34     -0.03356             -0.07335             -0.00560         *
 * In             35      0.00650             -0.10659             -0.03108         *
 * In             36     -0.00614             -0.10885             -0.00603         *
 * In             37     -0.03537             -0.02868              0.06426         *
 * In             38     -0.02344              0.02148              0.04322         *
 * In             39     -0.09566              0.01932              0.00895         *
 * In             40     -0.08330              0.03313             -0.07024         *
 * In             41     -0.22053              0.02474              0.01804         *
 * In             42     -0.18408             -0.01909             -0.02780         *
 * In             43     -0.13092              0.00220             -0.01043         *
 * In             44     -0.08268             -0.07052             -0.00927         *
 * In             45     -0.04646             -0.03909             -0.00787         *
 * In             46     -0.05699              0.02524              0.00188         *
 * In             47      0.01488             -0.05205             -0.00465         *
 * In             48      0.00725              0.00608              0.00146         *
 *                                                                                  *
 ************************************************************************************
 EXP precond LBFGS => estimated nearest neighbor distance :  2.588       A
 EXP precond LBFGS => estimated cutoff distance :  5.176       A

 ************************************** Forces **************************************
 *                                                                                  *
 *                           Cartesian components (eV/A)                            *
 * -------------------------------------------------------------------------------- *
 *                         x                    y                    z              *
 *                                                                                  *
 * P               1      0.00816              0.02352             -0.12456         *
 * P               2      0.06204              0.05577              0.13408         *
 * P               3      0.03039             -0.04880             -0.02037         *
 * P               4     -0.11271             -0.01710              0.00690         *
 * P               5      0.01822             -0.05760             -0.02249         *
 * P               6     -0.05863             -0.04366             -0.00886         *
 * P               7     -0.01059             -0.04715             -0.00454         *
 * P               8      0.03156             -0.04706             -0.00568         *
 * P               9      0.00676             -0.07415              0.00634         *
 * P              10     -0.01511             -0.03670             -0.00240         *
 * P              11     -0.02886             -0.08505             -0.02015         *
 * P              12      0.02699             -0.05885             -0.01250         *
 * P              13     -0.14009              0.00613             -0.02223         *
 * P              14     -0.03584              0.03703             -0.09051         *
 * P              15     -0.09291              0.02253              0.00803         *
 * P              16     -0.02802              0.00518              0.02852         *
 * P              17     -0.07666              0.00067             -0.00735         *
 * P              18     -0.07921              0.02744             -0.00317         *
 * P              19     -0.04032              0.02593             -0.00574         *
 * P              20     -0.03675              0.01353             -0.00629         *
 * P              21     -0.00961             -0.00347             -0.01253         *
 * P              22      0.00484              0.05372             -0.02099         *
 * P              23      0.04528             -0.04989              0.01247         *
 * P              24      0.01036              0.02477             -0.00233         *
 * P              25     -0.10019              0.08403              0.04902         *
 * P              26     -0.12042              0.01761             -0.02845         *
 * P              27     -0.01434              0.00546              0.00213         *
 * P              28      0.08867             -0.03217             -0.01118         *
 * P              29     -0.06803              0.07432             -0.01004         *
 * P              30      0.04285              0.06577             -0.00770         *
 * P              31      0.01599              0.07602              0.00566         *
 * P              32     -0.03066              0.06628             -0.01334         *
 * P              33      0.01604              0.07354              0.01402         *
 * P              34      0.00810              0.05781              0.00987         *
 * P              35      0.00912              0.03445             -0.01534         *
 * P              36     -0.00363              0.09617              0.05202         *
 * P              37      0.11514              0.02651              0.09246         *
 * P              38      0.14733              0.10072             -0.01548         *
 * P              39      0.10029             -0.01189              0.00444         *
 * P              40      0.09459             -0.04550              0.00910         *
 * P              41      0.13488              0.07815             -0.01080         *
 * P              42      0.09627             -0.03232              0.00562         *
 * P              43      0.03971              0.01061              0.00517         *
 * P              44      0.03300              0.07133              0.00437         *
 * P              45     -0.00322              0.01826              0.00208         *
 * P              46      0.00834             -0.02222             -0.00686         *
 * P              47     -0.06692              0.04902             -0.00606         *
 * P              48     -0.06028             -0.01629             -0.01129         *
 * In              1     -0.04268             -0.09120             -0.00465         *
 * In              2     -0.04553             -0.05251             -0.00409         *
 * In              3     -0.01580              0.04508              0.04184         *
 * In              4      0.07271              0.06254              0.05183         *
 * In              5     -0.06823              0.06278              0.02336         *
 * In              6      0.10113              0.02381             -0.01160         *
 * In              7      0.05015              0.04646              0.00984         *
 * In              8     -0.05556              0.01635              0.01832         *
 * In              9     -0.00047              0.02904              0.00610         *
 * In             10      0.02714             -0.00853              0.00424         *
 * In             11     -0.01199              0.10284              0.01575         *
 * In             12      0.02290              0.11046              0.01121         *
 * In             13      0.05595              0.00050              0.01768         *
 * In             14     -0.00195             -0.10628             -0.01310         *
 * In             15      0.11894             -0.00432              0.00204         *
 * In             16      0.07126             -0.07098             -0.04747         *
 * In             17      0.09927             -0.00941              0.00758         *
 * In             18      0.10819             -0.04696             -0.00688         *
 * In             19      0.06843             -0.01478              0.00214         *
 * In             20      0.06160             -0.01087              0.00264         *
 * In             21      0.06521             -0.01881              0.01123         *
 * In             22      0.03985             -0.04390              0.00898         *
 * In             23      0.02479              0.07997              0.01078         *
 * In             24      0.01885             -0.09754              0.00725         *
 * In             25      0.00146              0.10773              0.00033         *
 * In             26      0.05805              0.06739             -0.01326         *
 * In             27      0.06153             -0.13582             -0.00556         *
 * In             28     -0.03343              0.01276             -0.02112         *
 * In             29      0.09251              0.01843             -0.01229         *
 * In             30     -0.02151             -0.09318              0.00042         *
 * In             31     -0.00230             -0.08588             -0.01224         *
 * In             32      0.08010             -0.05246              0.01178         *
 * In             33      0.00804             -0.04910             -0.00094         *
 * In             34     -0.03356             -0.07335             -0.00560         *
 * In             35      0.00650             -0.10659             -0.03108         *
 * In             36     -0.00614             -0.10885             -0.00603         *
 * In             37     -0.03537             -0.02868              0.06426         *
 * In             38     -0.02344              0.02148              0.04322         *
 * In             39     -0.09566              0.01932              0.00895         *
 * In             40     -0.08330              0.03313             -0.07024         *
 * In             41     -0.22053              0.02474              0.01804         *
 * In             42     -0.18408             -0.01909             -0.02780         *
 * In             43     -0.13092              0.00220             -0.01043         *
 * In             44     -0.08268             -0.07052             -0.00927         *
 * In             45     -0.04646             -0.03909             -0.00787         *
 * In             46     -0.05699              0.02524              0.00188         *
 * In             47      0.01488             -0.05205             -0.00465         *
 * In             48      0.00725              0.00608              0.00146         *
 *                                                                                  *
 ************************************************************************************
 doing test perturbation to get energy scale for EXP preconditioner

                           -------------------------------
                                     Cell Contents
                           -------------------------------

            xxxxxxxxxxxxxxxxxxxxxxxxxxxxxxxxxxxxxxxxxxxxxxxxxxxxxxxxxxxxxxxxx
            x  Element         Atom        Fractional coordinates of atoms  x
            x                 Number           u          v          w      x
            x---------------------------------------------------------------x
            x  P                 1         0.271999   0.309475   0.865368   x
            x  P                 2         0.199765   0.235928   0.669343   x
            x  P                 3         0.378943   0.241715   0.469961   x
            x  P                 4         0.506879   0.365659   0.967255   x
            x  P                 5         0.410228   0.105837   0.988424   x
            x  P                 6         0.537764   0.228931   0.482152   x
            x  P                 7         0.572193   0.094825   0.990281   x
            x  P                 8         0.447537   0.972457   0.490391   x
            x  P                 9         0.608957   0.961572   0.487681   x
            x  P                10         0.734143   0.084477   0.995720   x
            x  P                11         0.638955   0.826323   0.988291   x
            x  P                12         0.774109   0.951861   0.485797   x
            x  P                13         0.529754   0.554412   0.952319   x
            x  P                14         0.402681   0.429047   0.432344   x
            x  P                15         0.632004   0.489313   0.467529   x
            x  P                16         0.756127   0.612392   0.976592   x
            x  P                17         0.663444   0.352908   0.986369   x
            x  P                18         0.788741   0.478200   0.493354   x
            x  P                19         0.820758   0.344574   0.002889   x
            x  P                20         0.697192   0.218211   0.492045   x
            x  P                21         0.857130   0.212751   0.522263   x
            x  P                22         0.978738   0.338809   0.027865   x
            x  P                23         0.897650   0.084111   0.036233   x
            x  P                24         0.018489   0.210625   0.545326   x
            x  P                25         0.779850   0.800065   0.892311   x
            x  P                26         0.654901   0.678171   0.449198   x
            x  P                27         0.882002   0.732014   0.485553   x
            x  P                28         0.004598   0.855246   0.030215   x
            x  P                29         0.914970   0.601730   0.000574   x
            x  P                30         0.040739   0.725555   0.532660   x
            x  P                31         0.072125   0.595846   0.024414   x
            x  P                32         0.946405   0.470102   0.515850   x
            x  P                33         0.102893   0.465740   0.537674   x
            x  P                34         0.228927   0.588737   1.002717   x
            x  P                35         0.135074   0.337614   0.065411   x
            x  P                36         0.259803   0.456634   0.470334   x
            x  P                37         0.077261   0.101397   0.095010   x
            x  P                38         0.952924   0.972498   0.640584   x
            x  P                39         0.125504   0.983487   0.542689   x
            x  P                40         0.250134   0.111128   0.045948   x
            x  P                41         0.163121   0.853088   0.025375   x
            x  P                42         0.287025   0.979285   0.519938   x
            x  P                43         0.322505   0.846587   0.002215   x
            x  P                44         0.197886   0.721428   0.513905   x
            x  P                45         0.354841   0.711977   0.492984   x
            x  P                46         0.480410   0.837435   0.988023   x
            x  P                47         0.385045   0.576398   0.977410   x
            x  P                48         0.510725   0.700960   0.473760   x
            x  In                1         0.236914   0.394903   0.970078   x
            x  In                2         0.119145   0.277149   0.574748   x
            x  In                3         0.336764   0.322040   0.385497   x
            x  In                4         0.464876   0.447336   0.938314   x
            x  In                5         0.354175   0.177059   0.981959   x
            x  In                6         0.484612   0.301269   0.468348   x
            x  In                7         0.515475   0.164846   0.985486   x
            x  In                8         0.390857   0.041554   0.488850   x
            x  In                9         0.552595   0.030993   0.488120   x
            x  In               10         0.677086   0.154048   0.993915   x
            x  In               11         0.584852   0.897657   0.989124   x
            x  In               12         0.714656   0.019880   0.490904   x
            x  In               13         0.488532   0.636599   0.973221   x
            x  In               14         0.364078   0.512813   0.472922   x
            x  In               15         0.590786   0.571363   0.450766   x
            x  In               16         0.715869   0.694963   0.950768   x
            x  In               17         0.611250   0.425513   0.970983   x
            x  In               18         0.735841   0.549462   0.475686   x
            x  In               19         0.766662   0.414872   0.996265   x
            x  In               20         0.642199   0.288858   0.484755   x
            x  In               21         0.800431   0.281097   0.506179   x
            x  In               22         0.923559   0.407407   0.013036   x
            x  In               23         0.837210   0.149455   0.019952   x
            x  In               24         0.960209   0.276224   0.531770   x
            x  In               25         0.744651   0.885485   0.979929   x
            x  In               26         0.614898   0.761221   0.483788   x
            x  In               27         0.842889   0.813529   0.386681   x
            x  In               28         0.933691   0.906866   0.147232   x
            x  In               29         0.860191   0.670617   0.989719   x
            x  In               30         0.985682   0.792707   0.528101   x
            x  In               31         0.017265   0.663993   0.028637   x
            x  In               32         0.892092   0.539338   0.503387   x
            x  In               33         0.048265   0.534103   0.527860   x
            x  In               34         0.175342   0.658851   0.010549   x
            x  In               35         0.079420   0.404340   0.038073   x
            x  In               36         0.206190   0.526509   0.499926   x
            x  In               37         0.000997   0.148530   0.042555   x
            x  In               38         0.878879   0.020175   0.538681   x
            x  In               39         0.055582   0.037703   0.595811   x
            x  In               40         0.182218   0.167754   0.137731   x
            x  In               41         0.106470   0.921148   0.036477   x
            x  In               42         0.229712   0.046825   0.546933   x
            x  In               43         0.266630   0.915896   0.016395   x
            x  In               44         0.143158   0.790560   0.527587   x
            x  In               45         0.301498   0.783196   0.504991   x
            x  In               46         0.426207   0.908728   0.993339   x
            x  In               47         0.332721   0.648591   0.994640   x
            x  In               48         0.458431   0.773495   0.485246   x
            xxxxxxxxxxxxxxxxxxxxxxxxxxxxxxxxxxxxxxxxxxxxxxxxxxxxxxxxxxxxxxxxx


------------------------------------------------------------------------ <-- SCF
SCF loop      Energy           Fermi           Energy gain       Timer   <-- SCF
                               energy          per atom          (sec)   <-- SCF
------------------------------------------------------------------------ <-- SCF
Initial  -9.43112453E+004  0.00000000E+000                      5982.01  <-- SCF
      1  -9.43140426E+004  3.59496771E+000   2.91383043E-002    6295.74  <-- SCF
      2  -9.43144261E+004  3.59489027E+000   3.99509463E-003    6591.11  <-- SCF
      3  -9.43144308E+004  3.59492725E+000   4.88923407E-005    6843.47  <-- SCF
      4  -9.43144338E+004  3.59531291E+000   3.17266847E-005    7114.31  <-- SCF
      5  -9.43144341E+004  3.59561816E+000   2.87806141E-006    7414.50  <-- SCF
      6  -9.43144341E+004  3.59587781E+000   5.10316758E-007    7692.32  <-- SCF
      7  -9.43144341E+004  3.59608072E+000  -3.46129957E-008    7925.01  <-- SCF
      8  -9.43144341E+004  3.59629830E+000  -7.73631286E-008    8138.14  <-- SCF
      9  -9.43144341E+004  3.59645581E+000  -3.59000524E-008    8345.96  <-- SCF
     10  -9.43144341E+004  3.59657777E+000  -6.65647422E-009    8547.45  <-- SCF
     11  -9.43144341E+004  3.59659028E+000   6.51455641E-010    8727.88  <-- SCF
------------------------------------------------------------------------ <-- SCF
 
Final energy, E             =  -94314.41032758     eV
Final free energy (E-TS)    =  -94314.43412957     eV
(energies not corrected for finite basis set)
 
NB est. 0K energy (E-0.5TS)      =  -94314.42222857     eV
 

 ************************************** Forces **************************************
 *                                                                                  *
 *                           Cartesian components (eV/A)                            *
 * -------------------------------------------------------------------------------- *
 *                         x                    y                    z              *
 *                                                                                  *
 * P               1      0.01267              0.02353             -0.19935         *
 * P               2      0.10234              0.03849              0.07258         *
 * P               3      0.04990             -0.05776              0.03865         *
 * P               4     -0.09952             -0.01601             -0.06028         *
 * P               5      0.03294             -0.06168             -0.08481         *
 * P               6     -0.04620             -0.04731              0.06645         *
 * P               7      0.00533             -0.05298             -0.07351         *
 * P               8     -0.02069              0.03357              0.05918         *
 * P               9     -0.04111              0.00384              0.07397         *
 * P              10     -0.00295             -0.04508             -0.07566         *
 * P              11     -0.01161             -0.09549             -0.08140         *
 * P              12     -0.01933              0.01272              0.03814         *
 * P              13     -0.13553              0.00184             -0.10656         *
 * P              14     -0.03908              0.03024             -0.00769         *
 * P              15     -0.08029              0.02084              0.07974         *
 * P              16     -0.01996              0.00632             -0.05289         *
 * P              17     -0.06445              0.00068             -0.07680         *
 * P              18     -0.06318              0.01875              0.05558         *
 * P              19     -0.02938              0.02147              0.09761         *
 * P              20     -0.02526              0.00531              0.05319         *
 * P              21     -0.00520             -0.01727             -0.10054         *
 * P              22     -0.09146             -0.00633              0.08208         *
 * P              23     -0.03951             -0.10108              0.10721         *
 * P              24      0.04098              0.11303             -0.10134         *
 * P              25     -0.11203              0.07847             -0.02412         *
 * P              26     -0.11860              0.01149              0.05588         *
 * P              27     -0.01908             -0.01125              0.06857         *
 * P              28      0.12489              0.06674              0.07992         *
 * P              29     -0.15968              0.02821              0.09551         *
 * P              30      0.07277              0.15402             -0.11806         *
 * P              31      0.04557              0.07304              0.11071         *
 * P              32     -0.12302              0.01460             -0.11764         *
 * P              33      0.04170              0.07949             -0.09234         *
 * P              34      0.01861              0.05522             -0.08078         *
 * P              35      0.01473              0.02181              0.10246         *
 * P              36      0.00435              0.10044              0.12505         *
 * P              37      0.13187              0.01123              0.18359         *
 * P              38      0.02107              0.13946             -0.07644         *
 * P              39      0.05919              0.06518             -0.09880         *
 * P              40      0.09830             -0.05550              0.10685         *
 * P              41      0.14019              0.07727              0.09244         *
 * P              42      0.04151              0.04777             -0.08072         *
 * P              43      0.04901              0.00261              0.10982         *
 * P              44      0.04342              0.06224             -0.09550         *
 * P              45      0.00784              0.01726              0.06725         *
 * P              46      0.01735             -0.02586             -0.07406         *
 * P              47     -0.05517              0.04484             -0.08393         *
 * P              48     -0.05268             -0.01737              0.05885         *
 * In              1     -0.03922             -0.08295             -0.08131         *
 * In              2     -0.05145             -0.04020             -0.09961         *
 * In              3     -0.03419              0.04096              0.10474         *
 * In              4      0.07411              0.06745             -0.01610         *
 * In              5     -0.07812              0.07387             -0.04001         *
 * In              6      0.09222              0.02444              0.04519         *
 * In              7      0.03733              0.04960             -0.04754         *
 * In              8      0.01474             -0.06232              0.07402         *
 * In              9      0.06159             -0.04906              0.06377         *
 * In             10      0.01610             -0.00669             -0.05177         *
 * In             11     -0.03209              0.11233             -0.04092         *
 * In             12      0.07636              0.04099              0.07049         *
 * In             13      0.04501              0.00221             -0.04118         *
 * In             14     -0.01899             -0.10404              0.04628         *
 * In             15      0.11761             -0.00076              0.07605         *
 * In             16      0.07100             -0.07136             -0.12255         *
 * In             17      0.08683             -0.00744             -0.05254         *
 * In             18      0.09883             -0.04762              0.05647         *
 * In             19      0.05553             -0.01124             -0.06509         *
 * In             20      0.05006             -0.00827              0.06139         *
 * In             21      0.04935             -0.01247             -0.07109         *
 * In             22      0.01610             -0.03826              0.09157         *
 * In             23      0.01539              0.07702              0.09857         *
 * In             24     -0.00134             -0.17027             -0.07708         *
 * In             25     -0.01471              0.12158             -0.04680         *
 * In             26      0.04412              0.07404              0.04032         *
 * In             27      0.06768             -0.12635              0.05516         *
 * In             28     -0.06977             -0.05092              0.06098         *
 * In             29      0.07803              0.00777             -0.08632         *
 * In             30     -0.03743             -0.19569             -0.08703         *
 * In             31      0.07425             -0.03407              0.08107         *
 * In             32      0.05673             -0.04983             -0.07723         *
 * In             33      0.09792             -0.00324             -0.08768         *
 * In             34     -0.04779             -0.06717              0.08573         *
 * In             35      0.11017             -0.06613              0.06061         *
 * In             36     -0.02292             -0.10511              0.06313         *
 * In             37      0.04277              0.02056              0.15452         *
 * In             38      0.00299             -0.05330             -0.04482         *
 * In             39      0.03641             -0.02880             -0.07121         *
 * In             40     -0.11493              0.05322             -0.01775         *
 * In             41     -0.23803              0.03978              0.10219         *
 * In             42     -0.11542             -0.10462             -0.10029         *
 * In             43     -0.15204              0.01394              0.06587         *
 * In             44     -0.08606             -0.05513             -0.09194         *
 * In             45     -0.05762             -0.03456             -0.09080         *
 * In             46     -0.07681              0.03563             -0.06432         *
 * In             47      0.00263             -0.04847             -0.06274         *
 * In             48     -0.00447              0.00989              0.05954         *
 *                                                                                  *
 ************************************************************************************
 EXP precond LBFGS => estimated parameter mu :  2.150       eV/A**2
 LBFGS: finished iteration     0 with enthalpy= -9.43144631E+004 eV
  
 +-----------+-----------------+-----------------+------------+-----+ <-- LBFGS
 | Parameter |      value      |    tolerance    |    units   | OK? | <-- LBFGS
 +-----------+-----------------+-----------------+------------+-----+ <-- LBFGS
 |  dE/ion   |   0.000000E+000 |   2.000000E-005 |         eV | No  | <-- LBFGS
 |  |F|max   |   2.620765E-001 |   1.000000E-003 |       eV/A | No  | <-- LBFGS
 |  |dR|max  |   4.230034E-015 |   1.000000E-003 |          A | No  | <-- LBFGS
 +-----------+-----------------+-----------------+------------+-----+ <-- LBFGS
  

================================================================================
 Starting LBFGS iteration          1 ...
================================================================================
  
 +------------+-------------+-------------+-----------------+ <-- min LBFGS
 |    Step    |   lambda    |   F.delta'  |    enthalpy     | <-- min LBFGS
 +------------+-------------+-------------+-----------------+ <-- min LBFGS
 |  previous  |    0.000000 |    0.247417 |   -94314.463144 | <-- min LBFGS
 +------------+-------------+-------------+-----------------+ <-- min LBFGS
  

--------------------------------------------------------------------------------
 LBFGS: starting iteration         1 with trial guess (lambda=  1.000000)
--------------------------------------------------------------------------------

                           -------------------------------
                                     Cell Contents
                           -------------------------------

            xxxxxxxxxxxxxxxxxxxxxxxxxxxxxxxxxxxxxxxxxxxxxxxxxxxxxxxxxxxxxxxxx
            x  Element         Atom        Fractional coordinates of atoms  x
            x                 Number           u          v          w      x
            x---------------------------------------------------------------x
            x  P                 1         0.271776   0.309034  -0.141442   x
            x  P                 2         0.199825   0.235658   0.668118   x
            x  P                 3         0.378599   0.241566   0.466506   x
            x  P                 4         0.506135   0.364968  -0.037978   x
            x  P                 5         0.409670   0.105796  -0.017094   x
            x  P                 6         0.537122   0.228762   0.478936   x
            x  P                 7         0.571638   0.094865  -0.014695   x
            x  P                 8         0.446909   0.971678   0.487505   x
            x  P                 9         0.608431   0.960842   0.485366   x
            x  P                10         0.733736   0.084491  -0.008595   x
            x  P                11         0.638236   0.825436  -0.017597   x
            x  P                12         0.773779   0.951271   0.483587   x
            x  P                13         0.528800   0.553237  -0.053855   x
            x  P                14         0.402179   0.428221   0.427079   x
            x  P                15         0.631338   0.488657   0.464484   x
            x  P                16         0.755576   0.612027  -0.028632   x
            x  P                17         0.662775   0.352543  -0.019079   x
            x  P                18         0.788075   0.477768   0.490060   x
            x  P                19         0.820193   0.344382   0.002794   x
            x  P                20         0.696702   0.218101   0.489274   x
            x  P                21         0.856620   0.212810   0.519778   x
            x  P                22         0.978078   0.338708   0.027273   x
            x  P                23         0.897298   0.084389   0.038413   x
            x  P                24         0.018576   0.210641   0.543651   x
            x  P                25         0.779167   0.798951  -0.111779   x
            x  P                26         0.654020   0.677094   0.444852   x
            x  P                27         0.881291   0.731662   0.482354   x
            x  P                28         0.004614   0.854883   0.029817   x
            x  P                29         0.914292   0.601098  -0.000186   x
            x  P                30         0.040748   0.725039   0.528804   x
            x  P                31         0.072110   0.595331   0.023865   x
            x  P                32         0.945775   0.469702   0.512236   x
            x  P                33         0.102824   0.465412   0.534437   x
            x  P                34         0.228548   0.588085  -0.002703   x
            x  P                35         0.134850   0.337372   0.064682   x
            x  P                36         0.259426   0.455959   0.468044   x
            x  P                37         0.077718   0.101552   0.098341   x
            x  P                38         0.953119   0.972012   0.637846   x
            x  P                39         0.125337   0.982673   0.540279   x
            x  P                40         0.249889   0.111124   0.046165   x
            x  P                41         0.163132   0.852273   0.024788   x
            x  P                42         0.286520   0.978495   0.516983   x
            x  P                43         0.321972   0.845627   0.002014   x
            x  P                44         0.197614   0.720609   0.510445   x
            x  P                45         0.354233   0.711077   0.489583   x
            x  P                46         0.479809   0.836487  -0.017481   x
            x  P                47         0.384292   0.575351  -0.028546   x
            x  P                48         0.509922   0.699907   0.469920   x
            x  In                1         0.236229   0.394529  -0.035550   x
            x  In                2         0.118786   0.276947   0.572184   x
            x  In                3         0.336481   0.321427   0.383140   x
            x  In                4         0.464672   0.446684  -0.066469   x
            x  In                5         0.353694   0.176480  -0.022746   x
            x  In                6         0.484513   0.301212   0.464938   x
            x  In                7         0.515229   0.164801  -0.019514   x
            x  In                8         0.390163   0.041201   0.486366   x
            x  In                9         0.552159   0.030871   0.485648   x
            x  In               10         0.676711   0.154129  -0.010747   x
            x  In               11         0.584501   0.896461  -0.015752   x
            x  In               12         0.714632   0.019682   0.489020   x
            x  In               13         0.487978   0.635808  -0.032365   x
            x  In               14         0.363255   0.512277   0.468998   x
            x  In               15         0.590498   0.570986   0.447230   x
            x  In               16         0.715313   0.694659  -0.055877   x
            x  In               17         0.610969   0.425389  -0.034203   x
            x  In               18         0.735512   0.549512   0.472325   x
            x  In               19         0.766276   0.414877  -0.009090   x
            x  In               20         0.641852   0.288917   0.481827   x
            x  In               21         0.800089   0.281298   0.503682   x
            x  In               22         0.922941   0.407455   0.012891   x
            x  In               23         0.837052   0.149411   0.021330   x
            x  In               24         0.959378   0.276466   0.529408   x
            x  In               25         0.744404   0.884386  -0.024980   x
            x  In               26         0.614568   0.760302   0.479721   x
            x  In               27         0.842165   0.813451   0.384245   x
            x  In               28         0.933108   0.906200   0.146283   x
            x  In               29         0.859880   0.670471  -0.016160   x
            x  In               30        -0.015361   0.792374   0.524652   x
            x  In               31         0.017027   0.663689   0.027613   x
            x  In               32         0.891588   0.539336   0.500177   x
            x  In               33         0.048128   0.533885   0.524348   x
            x  In               34         0.174753   0.658266   0.009964   x
            x  In               35         0.079079   0.404401   0.036951   x
            x  In               36         0.205561   0.526217   0.496684   x
            x  In               37         1.001077   0.148575   0.045967   x
            x  In               38         0.878594   0.020146   0.537916   x
            x  In               39         0.055569   0.037364   0.594196   x
            x  In               40         0.181963   0.167235   0.136821   x
            x  In               41         0.105620   0.919571   0.036820   x
            x  In               42         0.228712   0.046086   0.543519   x
            x  In               43         0.265720   0.914489   0.015920   x
            x  In               44         0.142477   0.789694   0.523818   x
            x  In               45         0.300720   0.782228   0.501445   x
            x  In               46         0.425468   0.907521  -0.011922   x
            x  In               47         0.332053   0.647941  -0.011153   x
            x  In               48         0.457827   0.772545   0.481862   x
            xxxxxxxxxxxxxxxxxxxxxxxxxxxxxxxxxxxxxxxxxxxxxxxxxxxxxxxxxxxxxxxxx


------------------------------------------------------------------------ <-- SCF
SCF loop      Energy           Fermi           Energy gain       Timer   <-- SCF
                               energy          per atom          (sec)   <-- SCF
------------------------------------------------------------------------ <-- SCF
Initial  -9.43101059E+004  0.00000000E+000                      8944.34  <-- SCF
      1  -9.43140170E+004  3.59667932E+000   4.07409028E-002    9268.13  <-- SCF
      2  -9.43144887E+004  3.59659679E+000   4.91289514E-003    9576.44  <-- SCF
      3  -9.43144938E+004  3.59757535E+000   5.33800671E-005    9835.14  <-- SCF
      4  -9.43144969E+004  3.59820907E+000   3.23446293E-005   10106.17  <-- SCF
      5  -9.43144971E+004  3.59814505E+000   2.01516395E-006   10411.96  <-- SCF
      6  -9.43144970E+004  3.59810839E+000  -1.09483192E-006   10681.30  <-- SCF
      7  -9.43144969E+004  3.59817063E+000  -1.44660249E-006   10939.44  <-- SCF
      8  -9.43144967E+004  3.59821874E+000  -1.10780818E-006   11198.93  <-- SCF
      9  -9.43144967E+004  3.59821720E+000  -8.92917016E-008   11425.89  <-- SCF
     10  -9.43144967E+004  3.59821811E+000  -5.40615374E-009   11640.92  <-- SCF
     11  -9.43144967E+004  3.59821789E+000  -2.10827235E-009   11829.56  <-- SCF
------------------------------------------------------------------------ <-- SCF
 
Final energy, E             =  -94314.48619462     eV
Final free energy (E-TS)    =  -94314.49673722     eV
(energies not corrected for finite basis set)
 
NB est. 0K energy (E-0.5TS)      =  -94314.49146592     eV
 

 ************************************** Forces **************************************
 *                                                                                  *
 *                           Cartesian components (eV/A)                            *
 * -------------------------------------------------------------------------------- *
 *                         x                    y                    z              *
 *                                                                                  *
 * P               1      0.03293             -0.03802             -0.04863         *
 * P               2      0.00122             -0.02721              0.06496         *
 * P               3      0.01570              0.03562              0.00103         *
 * P               4      0.03726              0.02497             -0.00716         *
 * P               5      0.02565              0.03824             -0.00320         *
 * P               6      0.01033              0.01778              0.00467         *
[...]
  P              10     1.744   3.922   0.000   0.000   5.666    -0.666
  P              11     1.743   3.917   0.000   0.000   5.660    -0.660
  P              12     1.757   3.893   0.000   0.000   5.650    -0.650
  P              13     1.738   3.933   0.000   0.000   5.671    -0.671
  P              14     1.744   3.923   0.000   0.000   5.667    -0.667
  P              15     1.737   3.938   0.000   0.000   5.676    -0.676
  P              16     1.735   3.943   0.000   0.000   5.678    -0.678
  P              17     1.737   3.934   0.000   0.000   5.671    -0.671
  P              18     1.734   3.939   0.000   0.000   5.673    -0.673
  P              19     1.734   3.940   0.000   0.000   5.674    -0.674
  P              20     1.739   3.930   0.000   0.000   5.670    -0.670
  P              21     1.736   3.936   0.000   0.000   5.672    -0.672
  P              22     1.730   3.946   0.000   0.000   5.676    -0.676
  P              23     1.742   3.919   0.000   0.000   5.661    -0.661
  P              24     1.733   3.935   0.000   0.000   5.668    -0.668
  P              25     1.738   3.912   0.000   0.000   5.650    -0.650
  P              26     1.737   3.937   0.000   0.000   5.674    -0.674
  P              27     1.730   3.946   0.000   0.000   5.676    -0.676
  P              28     1.732   3.932   0.000   0.000   5.664    -0.664
  P              29     1.731   3.946   0.000   0.000   5.677    -0.677
  P              30     1.728   3.950   0.000   0.000   5.678    -0.678
  P              31     1.728   3.950   0.000   0.000   5.678    -0.678
  P              32     1.731   3.945   0.000   0.000   5.676    -0.676
  P              33     1.727   3.952   0.000   0.000   5.678    -0.678
  P              34     1.731   3.943   0.000   0.000   5.674    -0.674
  P              35     1.722   3.956   0.000   0.000   5.678    -0.678
  P              36     1.730   3.935   0.000   0.000   5.665    -0.665
  P              37     1.748   3.914   0.000   0.000   5.662    -0.662
  P              38     1.747   3.889   0.000   0.000   5.636    -0.636
  P              39     1.737   3.933   0.000   0.000   5.670    -0.670
  P              40     1.747   3.917   0.000   0.000   5.664    -0.664
  P              41     1.734   3.941   0.000   0.000   5.675    -0.675
  P              42     1.739   3.930   0.000   0.000   5.669    -0.669
  P              43     1.737   3.935   0.000   0.000   5.672    -0.672
  P              44     1.732   3.943   0.000   0.000   5.675    -0.675
  P              45     1.736   3.935   0.000   0.000   5.671    -0.671
  P              46     1.740   3.929   0.000   0.000   5.669    -0.669
  P              47     1.735   3.934   0.000   0.000   5.669    -0.669
  P              48     1.738   3.929   0.000   0.000   5.667    -0.667
  In              1     0.914   1.440   9.988   0.000  12.343     0.657
  In              2     0.897   1.452   9.988   0.000  12.337     0.663
  In              3     0.936   1.404   9.991   0.000  12.330     0.670
  In              4     0.906   1.425   9.990   0.000  12.322     0.678
  In              5     0.927   1.414   9.991   0.000  12.332     0.668
  In              6     0.920   1.428   9.990   0.000  12.338     0.662
  In              7     0.911   1.434   9.990   0.000  12.336     0.664
  In              8     0.910   1.433   9.990   0.000  12.333     0.667
  In              9     0.915   1.437   9.990   0.000  12.342     0.658
  In             10     0.913   1.435   9.990   0.000  12.338     0.662
  In             11     0.920   1.444   9.990   0.000  12.354     0.646
  In             12     0.922   1.429   9.991   0.000  12.342     0.658
  In             13     0.911   1.430   9.990   0.000  12.331     0.669
  In             14     0.905   1.435   9.989   0.000  12.329     0.671
  In             15     0.896   1.428   9.990   0.000  12.314     0.686
  In             16     0.906   1.429   9.989   0.000  12.324     0.676
  In             17     0.900   1.438   9.990   0.000  12.328     0.672
  In             18     0.892   1.446   9.989   0.000  12.327     0.673
  In             19     0.890   1.446   9.989   0.000  12.326     0.674
  In             20     0.904   1.438   9.990   0.000  12.332     0.668
  In             21     0.898   1.443   9.989   0.000  12.331     0.669
  In             22     0.882   1.452   9.989   0.000  12.323     0.677
  In             23     0.908   1.444   9.990   0.000  12.341     0.659
  In             24     0.888   1.444   9.989   0.000  12.321     0.679
  In             25     0.921   1.422   9.991   0.000  12.334     0.666
  In             26     0.924   1.422   9.990   0.000  12.336     0.664
  In             27     1.008   1.558   9.989   0.000  12.555     0.445
  In             28     1.001   1.556   9.989   0.000  12.547     0.453
  In             29     0.877   1.460   9.988   0.000  12.325     0.675
  In             30     0.860   1.453   9.988   0.000  12.301     0.699
  In             31     0.877   1.451   9.988   0.000  12.316     0.684
  In             32     0.874   1.454   9.988   0.000  12.316     0.684
  In             33     0.874   1.453   9.988   0.000  12.316     0.684
  In             34     0.882   1.447   9.989   0.000  12.318     0.682
  In             35     0.868   1.454   9.988   0.000  12.309     0.691
  In             36     0.882   1.448   9.988   0.000  12.319     0.681
  In             37     0.905   1.439   9.989   0.000  12.333     0.667
  In             38     0.911   1.429   9.990   0.000  12.331     0.669
  In             39     0.931   1.439   9.989   0.000  12.360     0.640
  In             40     0.938   1.405   9.991   0.000  12.334     0.666
  In             41     0.890   1.448   9.989   0.000  12.327     0.673
  In             42     0.918   1.435   9.990   0.000  12.343     0.657
  In             43     0.905   1.440   9.989   0.000  12.334     0.666
  In             44     0.888   1.446   9.989   0.000  12.323     0.677
  In             45     0.895   1.442   9.989   0.000  12.327     0.673
  In             46     0.907   1.440   9.990   0.000  12.337     0.663
  In             47     0.899   1.442   9.989   0.000  12.330     0.670
  In             48     0.904   1.440   9.989   0.000  12.334     0.666
==========================================================================

                 Bond                   Population      Length (A)
======================================================================
              P 1  -- P 2                    0.55        2.24098
              P 35 -- In 1                   0.59        2.49824
              P 35 -- In 2                   1.38        2.50652
              P 24 -- In 2                   0.61        2.50974
              P 28 -- In 41                  0.62        2.51216
              P 36 -- In 14                  0.55        2.51217
              P 22 -- In 35                  0.58        2.51804
              P 1  -- In 3                   1.24        2.51969
              P 35 -- In 35                  0.55        2.51983
              P 33 -- In 36                  0.58        2.52488
              P 30 -- In 30                  0.56        2.52656
              P 33 -- In 33                  0.56        2.52658
              P 30 -- In 44                  0.58        2.52701
              P 33 -- In 35                  1.39        2.52797
              P 27 -- In 30                  0.57        2.52798
              P 34 -- In 47                  0.57        2.52820
              P 19 -- In 22                  0.56        2.52883
              P 31 -- In 31                  0.55        2.52918
              P 47 -- In 13                  0.55        2.53001
              P 29 -- In 31                  0.56        2.53040
              P 27 -- In 29                  1.43        2.53078
              P 41 -- In 43                  0.57        2.53082
              P 31 -- In 34                  0.57        2.53189
              P 18 -- In 32                  0.56        2.53210
              P 36 -- In 1                   1.40        2.53222
              P 44 -- In 45                  0.57        2.53223
              P 32 -- In 33                  0.57        2.53283
              P 16 -- In 29                  0.51        2.53288
              P 26 -- In 16                  1.30        2.53432
              P 21 -- In 24                  0.57        2.53480
              P 28 -- In 30                  1.38        2.53483
              P 14 -- In 4                   1.29        2.53535
              P 17 -- In 19                  0.55        2.53628
              P 45 -- In 48                  0.55        2.53630
              P 13 -- In 15                  1.32        2.53719
              P 30 -- In 31                  1.36        2.53750
              P 32 -- In 32                  0.56        2.53931
              P 2  -- In 40                  1.16        2.53934
              P 43 -- In 46                  0.56        2.53970
              P 29 -- In 29                  0.56        2.54020
              P 22 -- In 22                  0.56        2.54043
              P 24 -- In 37                  1.32        2.54060
              P 20 -- In 21                  0.55        2.54078
              P 31 -- In 33                  1.38        2.54163
              P 15 -- In 18                  0.50        2.54230
              P 34 -- In 34                  0.55        2.54397
              P 44 -- In 44                  0.56        2.54448
              P 34 -- In 36                  1.37        2.54503
              P 29 -- In 32                  1.37        2.54687
              P 22 -- In 24                  1.36        2.54691
              P 6  -- In 20                  0.54        2.54701
              P 48 -- In 26                  0.55        2.54765
              P 36 -- In 36                  0.53        2.54769
              P 39 -- In 42                  0.59        2.54786
              P 46 -- In 11                  0.53        2.54789
              P 16 -- In 18                  1.40        2.54894
              P 42 -- In 8                   0.56        2.54940
              P 7  -- In 10                  0.54        2.55012
              P 32 -- In 22                  1.36        2.55093
              P 4  -- In 17                  0.50        2.55166
              P 39 -- In 41                  1.29        2.55173
              P 44 -- In 34                  1.35        2.55176
              P 41 -- In 41                  0.55        2.55227
              P 41 -- In 44                  1.34        2.55241
              P 25 -- In 27                  1.28        2.55257
              P 38 -- In 39                  0.57        2.55406
              P 8  -- In 9                   0.55        2.55451
              P 10 -- In 23                  0.54        2.55558
              P 3  -- In 5                   1.28        2.55593
              P 19 -- In 19                  0.57        2.55602
              P 47 -- In 14                  1.35        2.55740
              P 5  -- In 7                   0.54        2.55806
              P 18 -- In 19                  1.36        2.55893
              P 24 -- In 24                  0.53        2.55922
              P 18 -- In 18                  0.57        2.55946
              P 15 -- In 17                  1.39        2.56092
              P 45 -- In 45                  0.56        2.56156
              P 45 -- In 47                  1.35        2.56185
              P 19 -- In 21                  1.34        2.56189
              P 4  -- In 6                   1.36        2.56228
              P 23 -- In 37                  0.58        2.56290
              P 21 -- In 21                  0.58        2.56331
              P 21 -- In 23                  1.32        2.56391
              P 38 -- In 38                  0.58        2.56423
              P 43 -- In 43                  0.56        2.56438
              P 11 -- In 11                  0.58        2.56447
              P 23 -- In 23                  0.57        2.56459
              P 39 -- In 39                  0.56        2.56492
              P 43 -- In 45                  1.33        2.56590
              P 37 -- In 39                  1.21        2.56732
              P 6  -- In 7                   1.33        2.56818
              P 48 -- In 48                  0.57        2.56887
              P 47 -- In 47                  0.56        2.56891
              P 17 -- In 17                  0.57        2.56896
              P 17 -- In 20                  1.34        2.56923
              P 40 -- In 40                  0.57        2.56923
              P 42 -- In 43                  1.32        2.56974
              P 38 -- In 28                  1.24        2.56983
              P 5  -- In 8                   1.31        2.57031
              P 48 -- In 13                  1.33        2.57197
              P 11 -- In 25                  0.53        2.57260
              P 42 -- In 42                  0.56        2.57263
              P 46 -- In 46                  0.56        2.57307
              P 7  -- In 9                   1.31        2.57307
              P 46 -- In 48                  1.33        2.57309
              P 9  -- In 12                  0.54        2.57311
              P 8  -- In 46                  1.31        2.57323
              P 3  -- In 6                   0.51        2.57327
              P 6  -- In 6                   0.57        2.57404
              P 25 -- In 16                  0.59        2.57445
              P 37 -- In 37                  0.54        2.57448
              P 20 -- In 10                  1.32        2.57619
              P 28 -- In 28                  0.53        2.57630
              P 9  -- In 11                  1.31        2.57704
              P 23 -- In 38                  1.27        2.57711
              P 20 -- In 20                  0.57        2.57967
              P 3  -- In 3                   0.56        2.58052
              P 10 -- In 12                  1.31        2.58132
              P 11 -- In 26                  1.30        2.58243
              P 40 -- In 42                  1.26        2.58286
              P 25 -- In 25                  0.56        2.58384
              P 16 -- In 16                  0.55        2.58490
              P 37 -- In 40                  0.59        2.58532
              P 4  -- In 4                   0.55        2.58685
              P 15 -- In 15                  0.55        2.58779
              P 27 -- In 27                  0.52        2.58830
              P 9  -- In 9                   0.57        2.58903
              P 8  -- In 8                   0.57        2.58910
              P 40 -- In 5                   0.53        2.58916
              P 7  -- In 7                   0.57        2.58932
              P 26 -- In 26                  0.54        2.59030
              P 12 -- In 25                  1.25        2.59186
              P 10 -- In 10                  0.57        2.59617
              P 13 -- In 13                  0.53        2.59663
              P 2  -- In 2                   0.54        2.59724
              P 5  -- In 5                   0.57        2.59810
              P 26 -- In 15                  0.58        2.60214
              P 14 -- In 14                  0.52        2.60507
              P 12 -- In 12                  0.56        2.61320
              P 13 -- In 4                   0.58        2.61639
              P 1  -- In 1                   0.48        2.61892
              P 12 -- In 38                  0.54        2.63016
              P 14 -- In 3                   0.58        2.63692
             In 27 -- In 28                 -0.35        2.83102
======================================================================

 Hirshfeld supercell size:           1           1           4
Standard grid dimensions: 250 250 180
Fine grid dimensions:     250 250 180


     Hirshfeld Analysis
     ------------------
Species   Ion     Hirshfeld Charge (e)
======================================
  P        1                -0.15
  P        2                -0.14
  P        3                -0.24
  P        4                -0.25
  P        5                -0.24
  P        6                -0.24
  P        7                -0.24
  P        8                -0.24
  P        9                -0.24
  P       10                -0.24
  P       11                -0.24
  P       12                -0.23
  P       13                -0.24
  P       14                -0.24
  P       15                -0.24
  P       16                -0.24
  P       17                -0.24
  P       18                -0.24
  P       19                -0.24
  P       20                -0.24
  P       21                -0.24
  P       22                -0.24
  P       23                -0.24
  P       24                -0.24
  P       25                -0.25
  P       26                -0.24
  P       27                -0.25
  P       28                -0.24
  P       29                -0.24
  P       30                -0.24
  P       31                -0.24
  P       32                -0.24
  P       33                -0.24
  P       34                -0.24
  P       35                -0.25
  P       36                -0.24
  P       37                -0.24
  P       38                -0.24
  P       39                -0.24
  P       40                -0.24
  P       41                -0.24
  P       42                -0.24
  P       43                -0.24
  P       44                -0.24
  P       45                -0.24
  P       46                -0.24
  P       47                -0.24
  P       48                -0.24
  In       1                 0.24
  In       2                 0.24
  In       3                 0.25
  In       4                 0.24
  In       5                 0.25
  In       6                 0.24
  In       7                 0.24
  In       8                 0.24
  In       9                 0.24
  In      10                 0.24
  In      11                 0.23
  In      12                 0.24
  In      13                 0.25
  In      14                 0.24
  In      15                 0.24
  In      16                 0.24
  In      17                 0.24
  In      18                 0.24
  In      19                 0.24
  In      20                 0.24
  In      21                 0.24
  In      22                 0.24
  In      23                 0.24
  In      24                 0.24
  In      25                 0.24
  In      26                 0.25
  In      27                 0.15
  In      28                 0.15
  In      29                 0.23
  In      30                 0.23
  In      31                 0.24
  In      32                 0.24
  In      33                 0.24
  In      34                 0.24
  In      35                 0.24
  In      36                 0.24
  In      37                 0.24
  In      38                 0.24
  In      39                 0.23
  In      40                 0.25
  In      41                 0.23
  In      42                 0.24
  In      43                 0.24
  In      44                 0.24
  In      45                 0.24
  In      46                 0.24
  In      47                 0.24
  In      48                 0.24
======================================

 
 A BibTeX formatted list of references used in this run has been written to 
 90deg_Quadrupole_Migration_Endpoint.bib
 
Initialisation time =     30.90 s
Calculation time    =  48304.54 s
Finalisation time   =     68.24 s
Total time          =  48403.68 s
Peak Memory Use     = 9457876 kB
 
Overall parallel efficiency rating: Poor (35%)
 
Data was distributed by:-
G-vector (6-way); efficiency rating: Poor (37%)
k-point (20-way); efficiency rating: Very good (84%)
