 +-------------------------------------------------+
 |                                                 |
 |      CCC   AA    SSS  TTTTT  EEEEE  PPPP        |
 |     C     A  A  S       T    E      P   P       |
 |     C     AAAA   SS     T    EEE    PPPP        |
 |     C     A  A     S    T    E      P           |
 |      CCC  A  A  SSS     T    EEEEE  P           |
 |                                                 |
 +-------------------------------------------------+
 |                                                 |
 | Welcome to Academic Release CASTEP version 20.11|          
 | Ab Initio Total Energy Program                  |
 |                                                 |
 | Authors:                                        |
 | M. Segall, M. Probert, C. Pickard, P. Hasnip,   |
 | S. Clark, K. Refson, J. R. Yates, M. Payne      |
 |                                                 |
 | Contributors:                                   |
 | P. Lindan, P. Haynes, J. White, V. Milman,      |
 | N. Govind, M. Gibson, P. Tulip, V. Cocula,      |
 | B. Montanari, D. Quigley, M. Glover,            |
 | L. Bernasconi, A. Perlov, M. Plummer,           |
 | E. McNellis, J. Meyer, J. Gale, D. Jochym       |
 | J. Aarons, B. Walker, R. Gillen, D. Jones       |
 | T. Green, I. J. Bush, C. J. Armstrong,          |
 | E. J. Higgins, E. L. Brown, M. S. McFly,        |
 | J. Wilkins, B-C. Shih, P. J. P. Byrne,          |
 | R. J. Maurer, J. C. Womack, J. Dziedzic,        |
 | J. R. Kermode, A. Bartok-Partay                 |
 |                                                 |
 | Copyright (c) 2000 - 2020                       |
 |                                                 |
 |     Distributed under license from Cambridge    |
 |     Enterprise for academic use only.           |
 |                                                 |
 | Please cite                                     |
 |                                                 |
 |     "First principles methods using CASTEP"     |
 |                                                 |
 |         Zeitschrift fuer Kristallographie       |
 |           220(5-6) pp. 567-570 (2005)           |
 |                                                 |
 | S. J. Clark, M. D. Segall, C. J. Pickard,       |
 | P. J. Hasnip, M. J. Probert, K. Refson,         |
 | M. C. Payne                                     |
 |                                                 |
 |       in all publications arising from          |
 |              your use of CASTEP                 |
 |                                                 |
 +-------------------------------------------------+
 |                                                 |
 |              http://www.castep.org              |
 |                                                 |
 +-------------------------------------------------+
 
 
 
 Compiled for linux_x86_64_ifort on Wed, 25 Aug 2021 18:50:38 +0100
 from code version e772bf432+  HEAD  Sat Apr 3 17:41:32 2021 +0100
 Compiler: Intel Fortran 19.0.5.281; Optimisation: fast
 MATHLIBS: Intel MKL(2019.0.5) (LAPACK version 3.7.0)
 FFT Lib : mkl
 Fundamental constants values: CODATA 2014
 
 Run started: Fri, 16 Dec 2022 16:14:48 +0000
 
 Atomic calculation performed for P: 1s2 2s2 2p6 3s2 3p3
 
 Exceeded max iterations: converged to -0.000003405 eV
 The ae energy is -9309.074 eV
 
   ============================================================                
   | Pseudopotential Report - Date of generation 16-12-2022   |                
   ------------------------------------------------------------                
   | Element: P Ionic charge:  5.00 Level of theory: RSCAN    |                
   | Atomic Solver: Koelling-Harmon                           |                
   |                                                          |                
   |               Reference Electronic Structure             |                
   |         Orbital         Occupation         Energy        |                
   |            3s              2.000           -0.535        |                
   |            3p              3.000           -0.209        |                
   |                                                          |                
   |                 Pseudopotential Definition               |                
   |        Beta     l      e      Rc     scheme   norm       |                
   |          1      0   -0.535   1.807     qc      0         |                
   |          2      0    0.250   1.807     qc      0         |                
   |          3      1   -0.209   1.807     qc      0         |                
   |          4      1    0.250   1.807     qc      0         |                
   |          5      2    0.000   1.807     qc      0         |                
   |          6      2    0.250   1.807     qc      0         |                
   |         loc     3    0.000   1.807     pn      0         |                
   |                                                          |                
   | Augmentation charge Rinner = 1.263                       |                
   | Partial core correction Rc = 1.263                       |                
   ------------------------------------------------------------                
   | "3|1.8|4|4|5|30:31:32"                                   |                
   ------------------------------------------------------------                
   |      Author: Chris J. Pickard, Cambridge University      |                
   ============================================================                
 Warning: ion_atom_output_psp cannot write out meta-GGA pseudopotentials present
 ly.
 
 Atomic calculation performed for In:
 1s2 2s2 2p6 3s2 3p6 3d10 4s2 4p6 4d10 5s2 5p1
 
 Exceeded max iterations: converged to -0.000725459 eV
 The ae energy is -160093.321 eV
 
   ============================================================                
   | Pseudopotential Report - Date of generation 16-12-2022   |                
   ------------------------------------------------------------                
   | Element: In Ionic charge: 13.00 Level of theory: RSCAN   |                
   | Atomic Solver: Koelling-Harmon                           |                
   |                                                          |                
   |               Reference Electronic Structure             |                
   |         Orbital         Occupation         Energy        |                
   |            4d             10.000           -0.711        |                
   |            5s              2.000           -0.313        |                
   |            5p              1.000           -0.095        |                
   |                                                          |                
   |                 Pseudopotential Definition               |                
   |        Beta     l      e      Rc     scheme   norm       |                
   |          1      0   -0.313   2.501     qc      0         |                
   |          2      0    0.250   2.501     qc      0         |                
   |          3      1   -0.095   2.501     qc      0         |                
   |          4      1    0.250   2.501     qc      0         |                
   |          5      2   -0.711   2.207     qc      0         |                
   |          6      2    0.250   2.207     qc      0         |                
   |         loc     3    0.000   2.501     pn      0         |                
   |                                                          |                
   | Augmentation charge Rinner = 1.504                       |                
   | Partial core correction Rc = 1.504                       |                
   ------------------------------------------------------------                
   | "3|2.5|2.5|1.5|7|8|9|50:51:42U2.2U2.2"                   |                
   ------------------------------------------------------------                
   |      Author: Chris J. Pickard, Cambridge University      |                
   ============================================================                
 Warning: ion_atom_output_psp cannot write out meta-GGA pseudopotentials present
 ly.
 
 Pseudo atomic calculation performed for P 3s2 3p3
 
 Converged in 23 iterations to a total energy of -208.0292 eV
 
 Pseudo atomic calculation performed for In 4d10 5s2 5p1
 
 Converged in 42 iterations to a total energy of -1747.4504 eV
 Calculation parallelised over 32 processes.
 Data is distributed by k-point(32-way)

 ************************************ Title ************************************
 

 ***************************** General Parameters ******************************
  
 output verbosity                               : normal  (1)
 write checkpoint data to                       : WZ_EOS_0.9817.check
 type of calculation                            : single point energy
 stress calculation                             : on
 density difference calculation                 : off
 electron localisation func (ELF) calculation   : off
 Hirshfeld analysis                             : off
 molecular orbital projected DOS                : off
 deltaSCF calculation                           : off
 unlimited duration calculation
 timing information                             : on
 memory usage estimate                          : on
 write extra output files                       : on
 write final potential to formatted file        : off
 write final density to formatted file          : off
 write BibTeX reference list                    : on
 write OTFG pseudopotential files               : on
 write electrostatic potential file             : on
 write bands file                               : on
 checkpoint writing                             : off
  
 output         length unit                     : A
 output           mass unit                     : amu
 output           time unit                     : ps
 output         charge unit                     : e
 output           spin unit                     : hbar/2
 output         energy unit                     : eV
 output          force unit                     : eV/A
 output       velocity unit                     : A/ps
 output       pressure unit                     : GPa
 output     inv_length unit                     : 1/A
 output      frequency unit                     : cm-1
 output force constant unit                     : eV/A**2
 output         volume unit                     : A**3
 output   IR intensity unit                     : (D/A)**2/amu
 output         dipole unit                     : D
 output         efield unit                     : eV/A/e
 output        entropy unit                     : J/mol/K
 output    efield chi2 unit                     : pm/V
  
 wavefunctions paging                           : none
 random number generator seed                   : randomised (161448745)
 data distribution                              : optimal for this architecture
 optimization strategy                          : balance speed and memory

 *********************** Exchange-Correlation Parameters ***********************
  
 using functional                               : RSCAN
 relativistic treatment                         : Koelling-Harmon
 DFT+D: Semi-empirical dispersion correction    : off

 ************************* Pseudopotential Parameters **************************
  
 pseudopotential representation                 : reciprocal space
 <beta|phi> representation                      : reciprocal space
 spin-orbit coupling                            : off

 **************************** Basis Set Parameters *****************************
  
 plane wave basis set cut-off                   :   900.0000   eV
 size of standard grid                          :     1.7500
 size of   fine   gmax                          :    26.8966   1/A
 finite basis set correction                    : automatic
 number of sample energies                      :          3
           sample  spacing                      :     5.0000   eV

 **************************** Electronic Parameters ****************************
  
 number of  electrons                           :  36.00    
 net charge of system                           :  0.000    
 treating system as non-spin-polarized
 number of bands                                :         22

 ********************* Electronic Minimization Parameters **********************
  
 Method: Treating system as metallic with density mixing treatment of electrons,
         and number of  SD  steps               :          1
         and number of  CG  steps               :          4
  
 total energy / atom convergence tol.           : 0.1000E-07   eV
 eigen-energy convergence tolerance             : 0.2222E-08   eV
 max force / atom convergence tol.              : ignored
 convergence tolerance window                   :          3   cycles
 max. number of SCF cycles                      :         30
 number of fixed-spin iterations                :         10
 smearing scheme                                : Gaussian
 smearing width                                 : 0.2000       eV
 Fermi energy convergence tolerance             : 0.2721E-13   eV
 periodic dipole correction                     : NONE

 ************************** Density Mixing Parameters **************************
  
 density-mixing scheme                          : Broyden
 max. length of mixing history                  :         20
 charge density mixing amplitude                : 0.8000    
 cut-off energy for mixing                      :  900.0       eV

 *********************** Population Analysis Parameters ************************
  
 Population analysis with cutoff                :  3.000       A
 Population analysis output                     : summary and pdos components

 *******************************************************************************
  
 
                           -------------------------------
                                      Unit Cell
                           -------------------------------
        Real Lattice(A)                      Reciprocal Lattice(1/A)
     4.0884200    -0.0000430     0.0000000        1.536815483  -0.887259656   0.000000000
     2.0441730     3.5406960     0.0000000        0.000018664   1.774551431   0.000000000
     0.0000000     0.0000000     6.7140690        0.000000000   0.000000000   0.935823762
 
                       Lattice parameters(A)       Cell Angles
                    a =      4.088420          alpha =   90.000000
                    b =      4.088419          beta  =   90.000000
                    c =      6.714069          gamma =   60.001195
 
                       Current cell volume =            97.192462       A**3
                                   density =             3.000063   AMU/A**3
                                           =             4.981722     g/cm^3
 
                           -------------------------------
                                     Cell Contents
                           -------------------------------
                         Total number of ions in cell =    4
                      Total number of species in cell =    2
                        Max number of any one species =    2
 
            xxxxxxxxxxxxxxxxxxxxxxxxxxxxxxxxxxxxxxxxxxxxxxxxxxxxxxxxxxxx
            x  Element    Atom        Fractional coordinates of atoms  x
            x            Number           u          v          w      x
            x----------------------------------------------------------x
            x  P            1         0.333329   0.333331  -0.000013   x 
            x  P            2         0.666669   0.666671   0.499987   x 
            x  In           1         0.333331   0.333333   0.374443   x 
            x  In           2         0.666667   0.666669   0.874443   x 
            xxxxxxxxxxxxxxxxxxxxxxxxxxxxxxxxxxxxxxxxxxxxxxxxxxxxxxxxxxxx
 
 
                         No user defined ionic velocities
 
                           -------------------------------
                                   Details of Species
                           -------------------------------
 
                               Mass of species in AMU
                                    P   30.9737600
                                    In  114.8180000
 
                          Electric Quadrupole Moment (Barn)
                                    P    1.0000000 No Isotope Defined
                                    In    0.7700000 Isotope115
 
                          Files used for pseudopotentials:
                                    P 3|1.8|4|4|5|30:31:32
                                    In 3|2.5|2.5|1.5|7|8|9|50:51:42U2.2U2.2
 
                           -------------------------------
                              k-Points For BZ Sampling
                           -------------------------------
                       MP grid size for SCF calculation is 11 11  5
                            with an offset of   0.045  0.045  0.100
                       Number of kpoints used =           303
 
                           -------------------------------
                               Symmetry and Constraints
                           -------------------------------
 
                      Maximum deviation from symmetry =  0.00000         ANG
 
                      Number of symmetry operations   =           1
                      Number of ionic constraints     =           3
                      Point group of crystal =     1: C1, 1, 1
                      Space group of crystal =   186: P6_3mc, P 6c -2c
 
             Set iprint > 1 for details on symmetry rotations/translations
 
                         Centre of mass is constrained
             Set iprint > 1 for details of linear ionic constraints
 
                         Number of cell constraints= 0
                         Cell constraints are:  1 2 3 4 5 6
 
                         External pressure/stress (GPa)
                          0.00000   0.00000   0.00000
                                    0.00000   0.00000
                                              0.00000
  
+---------------- MEMORY AND SCRATCH DISK ESTIMATES PER PROCESS --------------+
|                                                     Memory          Disk    |
| Baseline code, static data and system overhead      394.0 MB         0.0 MB |
| BLAS internal memory storage                          0.0 MB         0.0 MB |
| Model and support data                              227.4 MB       412.9 MB |
| Electronic energy minimisation requirements          70.0 MB         0.0 MB |
| Force calculation requirements                       11.3 MB         0.0 MB |
| Stress calculation requirements                      12.5 MB         0.0 MB |
|                                               ----------------------------- |
| Approx. total storage required per process          691.3 MB       412.9 MB |
|                                                                             |
| Requirements will fluctuate during execution and may exceed these estimates |
+-----------------------------------------------------------------------------+
Calculating finite basis set correction with  3 cut-off energies.
Calculating total energy with cut-off of  890.000 eV.
------------------------------------------------------------------------ <-- SCF
SCF loop      Energy           Fermi           Energy gain       Timer   <-- SCF
                               energy          per atom          (sec)   <-- SCF
------------------------------------------------------------------------ <-- SCF
Initial  -3.09666949E+003  0.00000000E+000                        19.49  <-- SCF
      1  -3.81441610E+003  5.01857035E+000   1.79436651E+002      34.73  <-- SCF
      2  -3.91111050E+003  3.53221977E+000   2.41736008E+001      44.47  <-- SCF
      3  -3.91401822E+003  3.31505214E+000   7.26930081E-001      54.72  <-- SCF
      4  -3.93010930E+003  3.99349951E+000   4.02276918E+000      67.47  <-- SCF
      5  -3.93011799E+003  3.99308446E+000   2.17336783E-003      80.20  <-- SCF
      6  -3.93064653E+003  4.04353891E+000   1.32136483E-001      93.02  <-- SCF
      7  -3.92971204E+003  4.25405354E+000  -2.33624045E-001     105.78  <-- SCF
      8  -3.92987702E+003  4.30967420E+000   4.12454604E-002     118.45  <-- SCF
      9  -3.92987658E+003  4.32172647E+000  -1.08980901E-004     132.71  <-- SCF
     10  -3.92987708E+003  4.33297184E+000   1.23791984E-004     145.50  <-- SCF
     11  -3.92987710E+003  4.33745867E+000   4.24001196E-006     159.04  <-- SCF
     12  -3.92987710E+003  4.33686737E+000   5.73160246E-007     171.52  <-- SCF
     13  -3.92987710E+003  4.33688876E+000  -6.65118932E-011     182.08  <-- SCF
     14  -3.92987710E+003  4.33691991E+000   1.26362930E-008     191.07  <-- SCF
     15  -3.92987710E+003  4.33692961E+000   1.02842081E-009     199.90  <-- SCF
     16  -3.92987710E+003  4.33692988E+000   1.62412762E-010     209.00  <-- SCF
------------------------------------------------------------------------ <-- SCF
 
Final energy, E             =  -3929.877099162     eV
Final free energy (E-TS)    =  -3929.877099162     eV
(energies not corrected for finite basis set)
 
NB est. 0K energy (E-0.5TS)      =  -3929.877099162     eV
 
Calculating total energy with cut-off of  895.000 eV.
------------------------------------------------------------------------ <-- SCF
SCF loop      Energy           Fermi           Energy gain       Timer   <-- SCF
                               energy          per atom          (sec)   <-- SCF
------------------------------------------------------------------------ <-- SCF
Initial  -3.92987710E+003  0.00000000E+000                       213.76  <-- SCF
      1  -3.92987711E+003  4.33693138E+000   1.71065225E-006     225.34  <-- SCF
      2  -3.92987711E+003  4.33693138E+000   4.56302523E-011     234.06  <-- SCF
      3  -3.92987711E+003  4.33693157E+000   6.31282940E-010     243.08  <-- SCF
      4  -3.92987711E+003  4.33693120E+000   3.34492951E-011     252.57  <-- SCF
------------------------------------------------------------------------ <-- SCF
 
Final energy, E             =  -3929.877106007     eV
Final free energy (E-TS)    =  -3929.877106007     eV
(energies not corrected for finite basis set)
 
NB est. 0K energy (E-0.5TS)      =  -3929.877106007     eV
 
Calculating total energy with cut-off of  900.000 eV.
------------------------------------------------------------------------ <-- SCF
SCF loop      Energy           Fermi           Energy gain       Timer   <-- SCF
                               energy          per atom          (sec)   <-- SCF
------------------------------------------------------------------------ <-- SCF
Initial  -3.92987711E+003  0.00000000E+000                       256.68  <-- SCF
      1  -3.92987711E+003  4.33693120E+000   1.36361330E-006     268.12  <-- SCF
      2  -3.92987711E+003  4.33693120E+000   1.08275175E-011     277.58  <-- SCF
      3  -3.92987711E+003  4.33693185E+000   4.78924301E-010     286.48  <-- SCF
      4  -3.92987711E+003  4.33693188E+000   1.77880645E-011     295.28  <-- SCF
------------------------------------------------------------------------ <-- SCF
 
Final energy, E             =  -3929.877111463     eV
Final free energy (E-TS)    =  -3929.877111463     eV
(energies not corrected for finite basis set)
 
NB est. 0K energy (E-0.5TS)      =  -3929.877111463     eV
 
 For future reference: finite basis dEtot/dlog(Ecut) =      -0.001093eV
 Total energy corrected for finite basis set =   -3929.877111 eV
 
 ************************** Forces **************************
 *                                                          *
 *               Cartesian components (eV/A)                *
 * -------------------------------------------------------- *
 *                         x            y            z      *
 *                                                          *
 * P               1     -0.00002     -0.00002      0.01643 *
 * P               2      0.00003      0.00002      0.01644 *
 * In              1      0.00005      0.00003     -0.01644 *
 * In              2     -0.00006     -0.00003     -0.01643 *
 *                                                          *
 ************************************************************
 
 ***************** Stress Tensor *****************
 *                                               *
 *          Cartesian components (GPa)           *
 * --------------------------------------------- *
 *             x             y             z     *
 *                                               *
 *  x     -4.250461      0.000014     -0.000010  *
 *  y      0.000014     -4.250495     -0.000000  *
 *  z     -0.000010     -0.000000     -4.295481  *
 *                                               *
 *  Pressure:    4.2655                          *
 *                                               *
 *************************************************
 
 Pseudo atomic calculation performed for P 3s2 3p3
 
 Converged in 23 iterations to a total energy of -208.0292 eV
 
 Pseudo atomic calculation performed for In 4d10 5s2 5p1
 
 Converged in 42 iterations to a total energy of -1747.4504 eV
Charge spilling parameter for spin component 1 = 0.16%
 
            Orbital Populations       
     Ion    Atom   Orbital             Charge
  -------------------------------------------
      P     1      S                    1.715
      P     1      Px                   1.331
      P     1      Py                   1.331
      P     1      Pz                   1.324
      P     2      S                    1.715
      P     2      Px                   1.331
      P     2      Py                   1.331
      P     2      Pz                   1.324
     In     1      Dzz                  1.996
     In     1      Dzy                  1.998
     In     1      Dzx                  1.998
     In     1      Dxx-yy               1.997
     In     1      Dxy                  1.997
     In     1      S                    1.451
     In     1      Px                   0.488
     In     1      Py                   0.488
     In     1      Pz                   0.482
     In     1      S                   -0.597
     In     2      Dzz                  1.996
     In     2      Dzy                  1.998
     In     2      Dzx                  1.998
     In     2      Dxx-yy               1.997
     In     2      Dxy                  1.997
     In     2      S                    1.451
     In     2      Px                   0.488
     In     2      Py                   0.488
     In     2      Pz                   0.482
     In     2      S                   -0.597
  -------------------------------------------
                           Total:      36.000
  -------------------------------------------
 
     Atomic Populations (Mulliken)
     -----------------------------
Species          Ion     s      p      d      f     Total  Charge (e)
=====================================================================
  P               1     1.71   3.99   0.00   0.00   5.70    -0.70
  P               2     1.71   3.99   0.00   0.00   5.70    -0.70
  In              1     0.85   1.46   9.99   0.00  12.30     0.70
  In              2     0.85   1.46   9.99   0.00  12.30     0.70
=====================================================================
 
                 Bond                   Population      Length (A)
======================================================================
               P 1 -- In 2                   2.01        2.50645
               P 2 -- In 1                   2.01        2.50645
               P 2 -- In 2                   0.30        2.51412
               P 1 -- In 1                   0.30        2.51412
======================================================================
 
 
 A BibTeX formatted list of references used in this run has been written to 
 WZ_EOS_0.9817.bib
 
Initialisation time =     16.33 s
Calculation time    =    308.39 s
Finalisation time   =      0.26 s
Total time          =    324.98 s
Peak Memory Use     = 1493988 kB
  
Overall parallel efficiency rating: Excellent (93%)                             
  
Data was distributed by:-
k-point (32-way); efficiency rating: Excellent (94%)                            
  
Parallel notes:
1) Calculation only took 324.7 s, so efficiency estimates may be inaccurate.    
