 +-------------------------------------------------+
 |                                                 |
 |      CCC   AA    SSS  TTTTT  EEEEE  PPPP        |
 |     C     A  A  S       T    E      P   P       |
 |     C     AAAA   SS     T    EEE    PPPP        |
 |     C     A  A     S    T    E      P           |
 |      CCC  A  A  SSS     T    EEEEE  P           |
 |                                                 |
 +-------------------------------------------------+
 |                                                 |
 | Welcome to Academic Release CASTEP version 24.1 |
 | Ab Initio Total Energy Program                  |
 |                                                 |
 | Authors:                                        |
 | M. Segall, M. Probert, C. Pickard, P. Hasnip,   |
 | S. Clark, K. Refson, J. R. Yates,               |
 | A. Bartok-Partay, M. Payne                      |
 |                                                 |
 | Contributors:                                   |
 | P. Lindan, P. Haynes, J. White, V. Milman,      |
 | N. Govind, M. Gibson, P. Tulip, V. Cocula,      |
 | B. Montanari, D. Quigley, M. Glover,            |
 | L. Bernasconi, A. Perlov, M. Plummer,           |
 | E. McNellis, J. Meyer, J. Gale, D. Jochym       |
 | J. Aarons, B. Walker, R. Gillen, D. Jones       |
 | T. Green, I. J. Bush, C. J. Armstrong,          |
 | E. J. Higgins, E. L. Brown, M. S. McFly,        |
 | J. Wilkins, B-C. Shih, P. J. P. Byrne,          |
 | R. J. Maurer, J. C. Womack, J. Dziedzic,        |
 | L. LeBlanc, T. K. Stenczel, J. Kermode,         |
 | S. Sturniolo, B. Shi, B. Durham, M. Evans,      |
 | M. J. Smith, A. Tamerus, Z. Hawkhead,           |
 | V. Ravindran, T. Hollins, S. A. Joyce,          |
 | R. T. Strong, A. M. Reilly, S. J. Donaldson     |
 |                                                 |
 | Copyright (c) 2000 - 2023                       |
 |                                                 |
 |     Distributed under license from Cambridge    |
 |     Enterprise for academic use only.           |
 |                                                 |
 | Please cite                                     |
 |                                                 |
 |     "First principles methods using CASTEP"     |
 |                                                 |
 |         Zeitschrift fuer Kristallographie       |
 |           220(5-6) pp. 567-570 (2005)           |
 |                                                 |
 | S. J. Clark, M. D. Segall, C. J. Pickard,       |
 | P. J. Hasnip, M. J. Probert, K. Refson,         |
 | M. C. Payne                                     |
 |                                                 |
 |       in all publications arising from          |
 |              your use of CASTEP                 |
 |                                                 |
 +-------------------------------------------------+
 |                                                 |
 |              http://www.castep.org              |
 |                                                 |
 +-------------------------------------------------+



 Compiled for  GNU 11.2.0 on 04-04-2024 18:39:17
 from code version 6355fd106 Castep241_branch Thu Mar 7 17:56:19 2024 +0000
 Compiler: GNU Fortran 11.2.0; Optimisation: FAST
 Comms   : MPI VERSION : CRAY MPICH version 8.1.23.14 (ANL base 3.4a2)
 MATHLIBS: default (LAPACK version 3.10.1)
 FFT Lib : fftw3 version commercial-fftw-3.3.10-sse2-avx-avx2-avx2_128
 Fundamental constants values: CODATA 2018

 Run started: Tue, 29 Apr 2025 18:18:25 +0100

 Atomic calculation performed for P: 1s2 2s2 2p6 3s2 3p3

 Converged in 47 iterations to an ae energy of -9309.074 eV

   ============================================================                
   | Pseudopotential Report - Date of generation 29-04-2025   |                
   ------------------------------------------------------------                
   | Element: P Ionic charge:  5.00 Level of theory: RSCAN    |                
   | Atomic Solver: Koelling-Harmon                           |                
   |                                                          |                
   |               Reference Electronic Structure             |                
   |         Orbital         Occupation         Energy        |                
   |            3s              2.000           -0.535        |                
   |            3p              3.000           -0.209        |                
   |                                                          |                
   |                 Pseudopotential Definition               |                
   |        Beta     l      e      Rc     scheme   norm       |                
   |          1      0   -0.535   1.807     qc      0         |                
   |          2      0    0.250   1.807     qc      0         |                
   |          3      1   -0.209   1.807     qc      0         |                
   |          4      1    0.250   1.807     qc      0         |                
   |          5      2    0.000   1.807     qc      0         |                
   |          6      2    0.250   1.807     qc      0         |                
   |         loc     3    0.000   1.807     pn      0         |                
   |                                                          |                
   | Augmentation charge Rinner = 1.263                       |                
   | Partial core correction Rc = 1.263                       |                
   ------------------------------------------------------------                
   | "3|1.8|4|4|5|30:31:32"                                   |                
   ------------------------------------------------------------                
   |      Author: Chris J. Pickard, Cambridge University      |                
   ============================================================                
 Warning: otfg_output_psp cannot write out meta-GGA pseudopotentials presently.

 Atomic calculation performed for In:
 1s2 2s2 2p6 3s2 3p6 3d10 4s2 4p6 4d10 5s2 5p1

 Converged in 84 iterations to an ae energy of -160093.328 eV

   ============================================================                
   | Pseudopotential Report - Date of generation 29-04-2025   |                
   ------------------------------------------------------------                
   | Element: In Ionic charge: 13.00 Level of theory: RSCAN   |                
   | Atomic Solver: Koelling-Harmon                           |                
   |                                                          |                
   |               Reference Electronic Structure             |                
   |         Orbital         Occupation         Energy        |                
   |            4d             10.000           -0.711        |                
   |            5s              2.000           -0.313        |                
   |            5p              1.000           -0.095        |                
   |                                                          |                
   |                 Pseudopotential Definition               |                
   |        Beta     l      e      Rc     scheme   norm       |                
   |          1      0   -0.313   2.501     qc      0         |                
   |          2      0    0.250   2.501     qc      0         |                
   |          3      1   -0.095   2.501     qc      0         |                
   |          4      1    0.250   2.501     qc      0         |                
   |          5      2   -0.711   2.207     qc      0         |                
   |          6      2    0.250   2.207     qc      0         |                
   |         loc     3    0.000   2.501     pn      0         |                
   |                                                          |                
   | Augmentation charge Rinner = 1.504                       |                
   | Partial core correction Rc = 1.504                       |                
   ------------------------------------------------------------                
   | "3|2.5|2.5|1.5|7|8|9|50:51:42U2.2U2.2"                   |                
   ------------------------------------------------------------                
   |      Author: Chris J. Pickard, Cambridge University      |                
   ============================================================                
 Warning: otfg_output_psp cannot write out meta-GGA pseudopotentials presently.

 Pseudo atomic calculation performed for P 3s2 3p3

 Converged in 23 iterations to a total energy of -208.0292 eV

 Pseudo atomic calculation performed for In 4d10 5s2 5p1

 Converged in 42 iterations to a total energy of -1747.4501 eV
 Calculation parallelised over 120 processes.
 Data is distributed by G-vector(6-way) and k-point(20-way)
 Each process may use up to 16 threads.

 ************************************ Title ************************************
 

 ***************************** General Parameters ******************************
  
 output verbosity                               : normal  (1)
 write checkpoint data to                       : 90deg_Singlepoints_0.check
 type of calculation                            : single point energy
 stress calculation                             : off
 density difference calculation                 : off
 electron localisation func (ELF) calculation   : off
 Hirshfeld analysis                             : on
 polarisation (Berry phase) analysis            : off
 molecular orbital projected DOS                : off
 deltaSCF calculation                           : off
 unlimited duration calculation
 timing information                             : on
 memory usage estimate                          : on
 write extra output files                       : on
 write final potential to formatted file        : off
 write final density to formatted file          : off
 write BibTeX reference list                    : on
 write OTFG pseudopotential files               : on
 write electrostatic potential file             : on
 write bands file                               : on
 checkpoint writing                             : off
  
 output         length unit                     : A
 output           mass unit                     : amu
 output           time unit                     : ps
 output         charge unit                     : e
 output           spin unit                     : hbar/2
 output         energy unit                     : eV
 output          force unit                     : eV/A
 output       velocity unit                     : A/ps
 output       pressure unit                     : GPa
 output     inv_length unit                     : 1/A
 output      frequency unit                     : cm-1
 output force constant unit                     : eV/A**2
 output         volume unit                     : A**3
 output   IR intensity unit                     : (D/A)**2/amu
 output         dipole unit                     : D
 output         efield unit                     : eV/A/e
 output        entropy unit                     : J/mol/K
 output    efield chi2 unit                     : pm/V
  
 wavefunctions paging                           : none
 random number generator seed                   :  181825275
 data distribution                              : optimal for this architecture
 optimization strategy                          : balance speed and memory

 *********************** Exchange-Correlation Parameters ***********************
  
 using functional                               : RSCAN
 relativistic treatment                         : Koelling-Harmon
 DFT+D: Semi-empirical dispersion correction    : off

 ************************* Pseudopotential Parameters **************************
  
 pseudopotential representation                 : reciprocal space
 <beta|phi> representation                      : reciprocal space
 spin-orbit coupling                            : off

 **************************** Basis Set Parameters *****************************
  
 plane wave basis set cut-off                   :   900.0000   eV
 size of standard grid                          :     2.0000
 size of   fine   gmax                          :    30.7390   1/A
 finite basis set correction                    : none

 **************************** Electronic Parameters ****************************
  
 number of  electrons                           :  864.0    
 net charge of system                           :  0.000    
 treating system as non-spin-polarized
 number of bands                                :        518

 ********************* Electronic Minimization Parameters **********************
  
 Method: Treating system as metallic with density mixing treatment of electrons,
         and number of  SD  steps               :          1
         and number of  CG  steps               :          4
  
 total energy / atom convergence tol.           : 0.1000E-07   eV
 eigen-energy convergence tolerance             : 0.2222E-08   eV
 max force / atom convergence tol.              : ignored
 convergence tolerance window                   :          3   cycles
 max. number of SCF cycles                      :        100
 number of fixed-spin iterations                :         10
 smearing scheme                                : Gaussian
 smearing width                                 : 0.2000       eV
 Fermi energy convergence tolerance             : 0.2721E-13   eV
 periodic dipole correction                     : NONE

 ************************** Density Mixing Parameters **************************
  
 density-mixing scheme                          : Pulay
 max. length of mixing history                  :         20
 charge density mixing amplitude                : 0.5000    
 cut-off energy for mixing                      :  900.0       eV

 *********************** Population Analysis Parameters ************************
  
 Population analysis with cutoff                :  3.000       A
 Population analysis output                     : summary and pdos components

 *******************************************************************************
  

                           -------------------------------
                                      Unit Cell
                           -------------------------------
        Real Lattice(A)                      Reciprocal Lattice(1/A)
    14.4540490    20.4411120     0.0000000        0.217350353   0.153689910   0.000000000
    14.4540490   -20.4411120     0.0000000        0.217350353  -0.153689910   0.000000000
     0.0000000     0.0000000     4.1725250        0.000000000   0.000000000   1.505847252

                       Lattice parameters(A)       Cell Angles
                    a =     25.035147          alpha =   90.000000
                    b =     25.035147          beta  =   90.000000
                    c =      4.172525          gamma =  109.471220

                       Current cell volume =          2465.602056       A**3
                                   density =             2.838254   AMU/A**3
                                           =             4.713031     g/cm^3

                           -------------------------------
                                     Cell Contents
                           -------------------------------
                         Total number of ions in cell =   96
                      Total number of species in cell =    2
                        Max number of any one species =   48

            xxxxxxxxxxxxxxxxxxxxxxxxxxxxxxxxxxxxxxxxxxxxxxxxxxxxxxxxxxxx
            x  Element    Atom        Fractional coordinates of atoms  x
            x            Number           u          v          w      x
            x----------------------------------------------------------x
            x  P            1         0.274105   0.308992   0.150042   x 
            x  P            2         0.202027   0.235451   0.341916   x 
            x  P            3         0.378506   0.238234   0.540741   x 
            x  P            4         0.505889   0.361618   0.046641   x 
            x  P            5         0.410564   0.102726   0.021402   x 
            x  P            6         0.537756   0.225807   0.524389   x 
            x  P            7         0.573313   0.092811   0.016276   x 
            x  P            8         0.449105   0.969462   0.515157   x 
            x  P            9         0.612029   0.959972   0.517726   x 
            x  P           10         0.735822   0.087920  -0.009589   x 
            x  P           11         0.652011   0.826615   0.031595   x 
            x  P           12         0.776142   0.959707   0.478863   x 
            x  P           13         0.530441   0.551362   0.076744   x 
            x  P           14         0.403659   0.427187   0.588089   x 
            x  P           15         0.630432   0.483856   0.543383   x 
            x  P           16         0.755806   0.603129   0.032326   x 
            x  P           17         0.663585   0.350034   0.018269   x 
            x  P           18         0.789741   0.473192   0.508745   x 
            x  P           19         0.822671   0.342539  -0.005492   x 
            x  P           20         0.698085   0.218079   0.504753   x 
            x  P           21         0.859694   0.213373   0.481270   x 
            x  P           22         0.981757   0.338707  -0.028532   x 
            x  P           23         0.900943   0.087125  -0.032297   x 
            x  P           24         0.022175   0.211649   0.459828   x 
            x  P           25         0.828251   0.844135  -0.117093   x 
            x  P           26         0.655022   0.672628   0.631014   x 
            x  P           27         0.879098   0.725891   0.484071   x 
            x  P           28         0.000160   0.853431  -0.029908   x 
            x  P           29         0.916001   0.597112  -0.022663   x 
            x  P           30         0.038547   0.725361   0.473232   x 
            x  P           31         0.073958   0.596067  -0.022982   x 
            x  P           32         0.948577   0.468056   0.480321   x 
            x  P           33         0.106136   0.466581   0.468199   x 
            x  P           34         0.232251   0.589142   0.005969   x 
            x  P           35         0.138545   0.338487  -0.060786   x 
            x  P           36         0.263267   0.457137   0.537012   x 
            x  P           37         0.079082   0.100514  -0.073892   x 
            x  P           38         0.952177   0.972070   0.435885   x 
            x  P           39         0.124146   0.979402   0.463985   x 
            x  P           40         0.249881   0.108027  -0.037715   x 
            x  P           41         0.162945   0.850608  -0.019396   x 
            x  P           42         0.287169   0.976021   0.488277   x 
            x  P           43         0.325034   0.844894   0.001691   x 
            x  P           44         0.199214   0.720704   0.492494   x 
            x  P           45         0.358553   0.711926   0.514084   x 
            x  P           46         0.486820   0.836384   0.019833   x 
            x  P           47         0.389215   0.576854   0.034433   x 
            x  P           48         0.516979   0.701431   0.529475   x 
            x  In           1         0.240272   0.395350   0.040038   x 
            x  In           2         0.122489   0.278127   0.433044   x 
            x  In           3         0.338149   0.319839   0.628807   x 
            x  In           4         0.465573   0.444580   0.084873   x 
            x  In           5         0.354023   0.173443   0.030568   x 
            x  In           6         0.484019   0.297399   0.542496   x 
            x  In           7         0.515618   0.161731   0.023211   x 
            x  In           8         0.391275   0.038416   0.518509   x 
            x  In           9         0.553982   0.028723   0.516512   x 
            x  In          10         0.677176   0.154776   0.004418   x 
            x  In          11         0.592504   0.895328   0.020490   x 
            x  In          12         0.715331   0.024548   0.489970   x 
            x  In          13         0.493205   0.636449   0.032573   x 
            x  In          14         0.367642   0.512957   0.537778   x 
            x  In          15         0.591335   0.567201   0.576732   x 
            x  In          16         0.717824   0.685413   0.133345   x 
            x  In          17         0.610052   0.420782   0.041136   x 
            x  In          18         0.734543   0.541650   0.530088   x 
            x  In          19         0.767076   0.410706   0.008723   x 
            x  In          20         0.641726   0.286652   0.517111   x 
            x  In          21         0.801691   0.279821   0.494348   x 
            x  In          22         0.925345   0.405785  -0.019192   x 
            x  In          23         0.839624   0.150842  -0.019129   x 
            x  In          24         0.962715   0.276547   0.470973   x 
            x  In          25         0.756819   0.895479  -0.019937   x 
            x  In          26         0.622655   0.760104   0.540386   x 
            x  In          27         0.808261   0.778515   0.373065   x 
            x  In          28         0.931432   0.909284  -0.064913   x 
            x  In          29         0.859355   0.663427  -0.011041   x 
            x  In          30         0.980556   0.791643   0.472207   x 
            x  In          31         0.017833   0.663362  -0.026787   x 
            x  In          32         0.892699   0.535343   0.478515   x 
            x  In          33         0.050540   0.534131   0.476176   x 
            x  In          34         0.177418   0.658182  -0.007288   x 
            x  In          35         0.082868   0.405187  -0.035135   x 
            x  In          36         0.209510   0.526882   0.506496   x 
            x  In          37         1.004874   0.149982  -0.040556   x 
            x  In          38         0.880449   0.024660   0.467694   x 
            x  In          39         0.056788   0.037045   0.429705   x 
            x  In          40         0.183880   0.166618  -0.126056   x 
            x  In          41         0.104149   0.916821  -0.033777   x 
            x  In          42         0.228762   0.043357   0.464206   x 
            x  In          43         0.267109   0.912669  -0.011459   x 
            x  In          44         0.142027   0.788026   0.481455   x 
            x  In          45         0.303304   0.781709   0.501867   x 
            x  In          46         0.429672   0.905682   0.014472   x 
            x  In          47         0.336291   0.648527   0.014751   x 
            x  In          48         0.462775   0.772574   0.520739   x 
            xxxxxxxxxxxxxxxxxxxxxxxxxxxxxxxxxxxxxxxxxxxxxxxxxxxxxxxxxxxx


                         No user defined ionic velocities

                           -------------------------------
                                   Details of Species
                           -------------------------------

                               Mass of species in AMU
                                    P   30.9737600
                                    In  114.8180000

                          Electric Quadrupole Moment (Barn)
                                    P    1.0000000 No Isotope Defined
                                    In    0.7700000 Isotope115

                          Files used for pseudopotentials:
                                    P 3|1.8|4|4|5|30:31:32
                                    In 3|2.5|2.5|1.5|7|8|9|50:51:42U2.2U2.2

                           -------------------------------
                              k-Points For BZ Sampling
                           -------------------------------
                       MP grid size for SCF calculation is  2  2  8
                            with an offset of   0.250  0.250  0.062
                       Number of kpoints used =            20

                           -------------------------------
                               Symmetry and Constraints
                           -------------------------------

                      Maximum deviation from symmetry =  0.00000         ANG

                      Number of symmetry operations   =           1
                      Number of ionic constraints     =           3
                      Point group of crystal =     1: C1, 1, 1
                      Space group of crystal =     1: P1, P 1

             Set iprint > 1 for details on symmetry rotations/translations

                         Centre of mass is constrained
             Set iprint > 1 for details of linear ionic constraints

                         Number of cell constraints= 0
                         Cell constraints are:  1 2 3 4 5 6

                         External pressure/stress (GPa)
                          0.00000   0.00000   0.00000
                                    0.00000   0.00000
                                              0.00000
 
+---------------- MEMORY AND SCRATCH DISK ESTIMATES PER PROCESS --------------+
|                                                     Memory          Disk    |
| Baseline code, static data and system overhead      368.0 MB         0.0 MB |
| BLAS internal memory storage                          0.0 MB         0.0 MB |
| Model and support data                             3663.9 MB         0.0 MB |
| Electronic energy minimisation requirements         956.3 MB         0.0 MB |
| Force calculation requirements                       70.0 MB         0.0 MB |
|                                               ----------------------------- |
| Approx. total storage required per process         4988.2 MB         0.0 MB |
|                                                                             |
| Requirements will fluctuate during execution and may exceed these estimates |
+-----------------------------------------------------------------------------+
Calculating approximate eigenstates for fixed initial Hamiltonian
Cut-off for approx. calculation is   89.988 eV
Improving approx. states at cut-off of  450.000 eV
Resetting cut-off to  900.000 eV
Calculating total energy with cut-off of  900.000 eV.
------------------------------------------------------------------------ <-- SCF
SCF loop      Energy           Fermi           Energy gain       Timer   <-- SCF
                               energy          per atom          (sec)   <-- SCF
------------------------------------------------------------------------ <-- SCF
Initial  -9.45693179E+004  0.00000000E+000                       365.15  <-- SCF
      1  -9.42037619E+004  2.92190482E+000  -3.80787591E+000     707.50  <-- SCF
      2  -9.42042042E+004  2.92118088E+000   4.60790182E-003     932.43  <-- SCF
      3  -9.43042304E+004  3.16023837E+000   1.04193969E+000    1187.90  <-- SCF
      4  -9.43220313E+004  3.22369519E+000   1.85425618E-001    1554.05  <-- SCF
      5  -9.43128238E+004  3.52623978E+000  -9.59113564E-002    1798.06  <-- SCF
      6  -9.43128057E+004  3.58844262E+000  -1.87928475E-004    2046.05  <-- SCF
      7  -9.43125806E+004  3.62442078E+000  -2.34490955E-003    2313.43  <-- SCF
      8  -9.43146127E+004  3.63669368E+000   2.11674151E-002    2583.16  <-- SCF
      9  -9.43147767E+004  3.60832168E+000   1.70820660E-003    2860.32  <-- SCF
     10  -9.43148012E+004  3.61424068E+000   2.55378734E-004    3138.31  <-- SCF
     11  -9.43148152E+004  3.60975371E+000   1.46072381E-004    3415.93  <-- SCF
     12  -9.43148262E+004  3.61110326E+000   1.14054126E-004    3690.57  <-- SCF
     13  -9.43148270E+004  3.61209348E+000   8.03915118E-006    3979.22  <-- SCF
     14  -9.43148270E+004  3.61151984E+000  -5.17248560E-008    4259.91  <-- SCF
     15  -9.43148269E+004  3.61131484E+000  -1.91878177E-007    4505.59  <-- SCF
     16  -9.43148269E+004  3.61125451E+000   4.46231646E-008    4724.18  <-- SCF
     17  -9.43148269E+004  3.61133952E+000  -5.82132459E-008    4960.39  <-- SCF
     18  -9.43148269E+004  3.61131063E+000   4.12287378E-008    5176.50  <-- SCF
     19  -9.43148269E+004  3.61130386E+000   6.95964472E-009    5374.04  <-- SCF
     20  -9.43148269E+004  3.61130214E+000   2.89378297E-009    5553.20  <-- SCF
------------------------------------------------------------------------ <-- SCF
 
Final energy, E             =  -94314.79385992     eV
Final free energy (E-TS)    =  -94314.82693717     eV
(energies not corrected for finite basis set)
 
NB est. 0K energy (E-0.5TS)      =  -94314.81039855     eV
 

 ************************** Forces **************************
 *                                                          *
 *               Cartesian components (eV/A)                *
 * -------------------------------------------------------- *
 *                         x            y            z      *
 *                                                          *
 * P               1     -0.00475      0.04049      0.08224 *
 * P               2     -0.01345      0.03762     -0.10438 *
 * P               3     -0.01152     -0.05012      0.01394 *
 * P               4     -0.15528     -0.01949     -0.01750 *
 * P               5     -0.01429     -0.06583      0.01643 *
 * P               6     -0.08442     -0.03046      0.01801 *
 * P               7     -0.04156     -0.02951      0.01165 *
 * P               8      0.00812     -0.05841      0.00149 *
 * P               9     -0.01261     -0.05318      0.00228 *
 * P              10      0.00238     -0.03375      0.01040 *
 * P              11     -0.00171     -0.05380      0.01381 *
 * P              12      0.03780     -0.06359     -0.01191 *
 * P              13     -0.16110      0.02114      0.03481 *
 * P              14     -0.05613      0.03929      0.06758 *
 * P              15     -0.06093      0.00543     -0.02896 *
 * P              16     -0.04526      0.01248     -0.00446 *
 * P              17     -0.09577      0.01214      0.00850 *
 * P              18     -0.09057      0.06664      0.01275 *
 * P              19     -0.03855      0.05909      0.01304 *
 * P              20     -0.03996      0.00737      0.01078 *
 * P              21     -0.00212      0.04096      0.00785 *
 * P              22      0.00889      0.06501      0.01855 *
 * P              23      0.06225     -0.00909      0.00171 *
 * P              24     -0.00799      0.07153      0.01545 *
 * P              25      0.07645      0.07639      0.04596 *
 * P              26     -0.12459      0.08806     -0.03651 *
 * P              27      0.05365     -0.02533      0.00770 *
 * P              28      0.06870     -0.00950     -0.00643 *
 * P              29      0.01597      0.07119      0.01442 *
 * P              30      0.11745      0.08124     -0.00093 *
 * P              31      0.03240      0.06409      0.00007 *
 * P              32     -0.00930      0.08390      0.00149 *
 * P              33      0.01683      0.06434     -0.01537 *
 * P              34      0.00280      0.04612     -0.01176 *
 * P              35      0.00207      0.02846      0.01683 *
 * P              36     -0.01481      0.07692     -0.05211 *
 * P              37      0.06785      0.01059     -0.08627 *
 * P              38      0.16934      0.00040     -0.02846 *
 * P              39      0.11983      0.00793      0.01170 *
 * P              40      0.03708     -0.02662     -0.02204 *
 * P              41      0.08490     -0.00033     -0.00300 *
 * P              42      0.07115     -0.04014     -0.01122 *
 * P              43      0.03590     -0.01726     -0.01220 *
 * P              44      0.04793      0.03419     -0.00922 *
 * P              45      0.00997     -0.00803     -0.00726 *
 * P              46      0.00249     -0.07146      0.00274 *
 * P              47     -0.08518      0.01944      0.01385 *
 * P              48     -0.03870     -0.07371      0.02061 *
 * In              1     -0.01365     -0.07457      0.00593 *
 * In              2     -0.03078     -0.04168      0.00352 *
 * In              3      0.04618      0.02593     -0.01705 *
 * In              4      0.09918      0.04571     -0.03746 *
 * In              5     -0.01868      0.05629     -0.02239 *
 * In              6      0.13164      0.01075      0.01397 *
 * In              7      0.07944      0.03336     -0.00882 *
 * In              8     -0.02532      0.02778     -0.01808 *
 * In              9      0.01418      0.01712     -0.00561 *
 * In             10      0.05472      0.01287     -0.01070 *
 * In             11      0.02912      0.11588     -0.00999 *
 * In             12      0.02570      0.09906     -0.00610 *
 * In             13      0.08730      0.04648      0.00331 *
 * In             14      0.00907     -0.08010      0.00139 *
 * In             15      0.09307     -0.06756      0.03837 *
 * In             16      0.06624     -0.11440      0.01235 *
 * In             17      0.14181     -0.02998      0.00363 *
 * In             18      0.12211      0.02226      0.00888 *
 * In             19      0.10354     -0.04289     -0.01175 *
 * In             20      0.08939     -0.00835     -0.00114 *
 * In             21      0.05830     -0.04755     -0.00735 *
 * In             22      0.02124     -0.06414     -0.00245 *
 * In             23      0.00127     -0.00702     -0.00280 *
 * In             24      0.01348     -0.11329     -0.00448 *
 * In             25      0.00533      0.03461     -0.04921 *
 * In             26      0.00199      0.08785     -0.00563 *
 * In             27     -0.00649     -0.00489      0.01142 *
 * In             28     -0.06517     -0.04081     -0.04227 *
 * In             29      0.00667     -0.08942     -0.00097 *
 * In             30     -0.16506      0.01236     -0.00427 *
 * In             31     -0.06266     -0.06417      0.01283 *
 * In             32      0.01551     -0.08941      0.01443 *
 * In             33     -0.01311     -0.05080     -0.00018 *
 * In             34     -0.04926     -0.05101      0.00598 *
 * In             35     -0.00482     -0.11177      0.02896 *
 * In             36     -0.00333     -0.09762      0.00478 *
 * In             37     -0.00424     -0.07620     -0.04024 *
 * In             38     -0.06962      0.04615     -0.01507 *
 * In             39     -0.13172      0.07442      0.03624 *
 * In             40     -0.01109      0.04017      0.07452 *
 * In             41     -0.14632     -0.01280     -0.00924 *
 * In             42     -0.13466     -0.00845      0.02063 *
 * In             43     -0.08761      0.00976      0.01521 *
 * In             44     -0.11182     -0.01652     -0.00320 *
 * In             45     -0.06693      0.00064      0.00889 *
 * In             46     -0.02173      0.02439     -0.00267 *
 * In             47      0.00260     -0.02773      0.00510 *
 * In             48     -0.01674      0.09647     -0.01780 *
 *                                                          *
 ************************************************************

 Pseudo atomic calculation performed for P 3s2 3p3

 Converged in 23 iterations to a total energy of -208.0292 eV

 Pseudo atomic calculation performed for In 4d10 5s2 5p1

 Converged in 42 iterations to a total energy of -1747.4501 eV
Charge spilling parameter for spin component 1 = 0.17%

            Orbital Populations       
     Ion    Atom   Orbital             Charge
  -------------------------------------------
      P     1      S                    1.734
      P     1      Px                   1.041
      P     1      Py                   1.367
      P     1      Pz                   1.336
      P     2      S                    1.743
      P     2      Px                   1.043
      P     2      Py                   1.365
      P     2      Pz                   1.323
      P     3      S                    1.746
      P     3      Px                   1.319
      P     3      Py                   1.295
      P     3      Pz                   1.307
      P     4      S                    1.740
      P     4      Px                   1.318
      P     4      Py                   1.318
      P     4      Pz                   1.298
      P     5      S                    1.744
      P     5      Px                   1.319
      P     5      Py                   1.292
      P     5      Pz                   1.310
      P     6      S                    1.739
      P     6      Px                   1.317
      P     6      Py                   1.304
      P     6      Pz                   1.310
      P     7      S                    1.741
      P     7      Px                   1.317
      P     7      Py                   1.299
      P     7      Pz                   1.311
      P     8      S                    1.742
      P     8      Px                   1.321
      P     8      Py                   1.295
      P     8      Pz                   1.310
      P     9      S                    1.744
      P     9      Px                   1.313
      P     9      Py                   1.298
      P     9      Pz                   1.313
      P    10      S                    1.738
      P    10      Px                   1.311
      P    10      Py                   1.309
      P    10      Pz                   1.314
      P    11      S                    1.756
      P    11      Px                   1.297
      P    11      Py                   1.295
      P    11      Pz                   1.303
      P    12      S                    1.743
      P    12      Px                   1.293
      P    12      Py                   1.305
      P    12      Pz                   1.320
      P    13      S                    1.742
      P    13      Px                   1.275
      P    13      Py                   1.316
      P    13      Pz                   1.335
      P    14      S                    1.745
      P    14      Px                   1.267
      P    14      Py                   1.322
      P    14      Pz                   1.331
      P    15      S                    1.736
      P    15      Px                   1.321
      P    15      Py                   1.322
      P    15      Pz                   1.299
      P    16      S                    1.730
      P    16      Px                   1.305
      P    16      Py                   1.346
      P    16      Pz                   1.296
      P    17      S                    1.735
      P    17      Px                   1.317
      P    17      Py                   1.315
      P    17      Pz                   1.307
      P    18      S                    1.732
      P    18      Px                   1.311
      P    18      Py                   1.330
      P    18      Pz                   1.304
      P    19      S                    1.732
      P    19      Px                   1.311
      P    19      Py                   1.325
      P    19      Pz                   1.309
      P    20      S                    1.736
      P    20      Px                   1.315
      P    20      Py                   1.312
      P    20      Pz                   1.312
      P    21      S                    1.733
      P    21      Px                   1.311
      P    21      Py                   1.318
      P    21      Pz                   1.314
      P    22      S                    1.729
      P    22      Px                   1.311
      P    22      Py                   1.328
      P    22      Pz                   1.309
      P    23      S                    1.736
      P    23      Px                   1.297
      P    23      Py                   1.313
      P    23      Pz                   1.325
      P    24      S                    1.730
      P    24      Px                   1.293
      P    24      Py                   1.320
      P    24      Pz                   1.330
      P    25      S                    1.747
      P    25      Px                   1.275
      P    25      Py                   1.295
      P    25      Pz                   1.320
      P    26      S                    1.743
      P    26      Px                   1.273
      P    26      Py                   1.306
      P    26      Pz                   1.322
      P    27      S                    1.733
      P    27      Px                   1.295
      P    27      Py                   1.335
      P    27      Pz                   1.299
      P    28      S                    1.734
      P    28      Px                   1.310
      P    28      Py                   1.318
      P    28      Pz                   1.313
      P    29      S                    1.728
      P    29      Px                   1.309
      P    29      Py                   1.334
      P    29      Pz                   1.306
      P    30      S                    1.732
      P    30      Px                   1.307
      P    30      Py                   1.330
      P    30      Pz                   1.305
      P    31      S                    1.730
      P    31      Px                   1.311
      P    31      Py                   1.331
      P    31      Pz                   1.305
      P    32      S                    1.730
      P    32      Px                   1.307
      P    32      Py                   1.334
      P    32      Pz                   1.307
      P    33      S                    1.727
      P    33      Px                   1.314
      P    33      Py                   1.332
      P    33      Pz                   1.303
      P    34      S                    1.732
      P    34      Px                   1.317
      P    34      Py                   1.321
      P    34      Pz                   1.303
      P    35      S                    1.721
      P    35      Px                   1.330
      P    35      Py                   1.325
      P    35      Pz                   1.303
      P    36      S                    1.731
      P    36      Px                   1.329
      P    36      Py                   1.320
      P    36      Pz                   1.283
      P    37      S                    1.746
      P    37      Px                   1.276
      P    37      Py                   1.322
      P    37      Pz                   1.321
      P    38      S                    1.741
      P    38      Px                   1.281
      P    38      Py                   1.317
      P    38      Pz                   1.327
      P    39      S                    1.738
      P    39      Px                   1.305
      P    39      Py                   1.313
      P    39      Pz                   1.314
      P    40      S                    1.747
      P    40      Px                   1.315
      P    40      Py                   1.290
      P    40      Pz                   1.312
      P    41      S                    1.735
      P    41      Px                   1.313
      P    41      Py                   1.312
      P    41      Pz                   1.313
      P    42      S                    1.739
      P    42      Px                   1.319
      P    42      Py                   1.298
      P    42      Pz                   1.313
      P    43      S                    1.738
      P    43      Px                   1.318
      P    43      Py                   1.305
      P    43      Pz                   1.309
      P    44      S                    1.734
      P    44      Px                   1.315
      P    44      Py                   1.319
      P    44      Pz                   1.307
      P    45      S                    1.738
      P    45      Px                   1.316
      P    45      Py                   1.312
      P    45      Pz                   1.305
      P    46      S                    1.743
      P    46      Px                   1.315
      P    46      Py                   1.300
      P    46      Pz                   1.309
      P    47      S                    1.737
      P    47      Px                   1.324
      P    47      Py                   1.310
      P    47      Pz                   1.295
      P    48      S                    1.743
      P    48      Px                   1.312
      P    48      Py                   1.306
      P    48      Pz                   1.298
     In     1      Dzz                  1.997
     In     1      Dzy                  1.998
     In     1      Dzx                  1.997
     In     1      Dxx-yy               1.998
     In     1      Dxy                  1.998
     In     1      S                    1.411
     In     1      Px                   0.497
     In     1      Py                   0.453
     In     1      Pz                   0.489
     In     1      S                   -0.496
     In     2      Dzz                  1.997
     In     2      Dzy                  1.998
     In     2      Dzx                  1.998
     In     2      Dxx-yy               1.997
     In     2      Dxy                  1.998
     In     2      S                    1.405
     In     2      Px                   0.497
     In     2      Py                   0.464
     In     2      Pz                   0.493
     In     2      S                   -0.505
     In     3      Dzz                  1.998
     In     3      Dzy                  1.998
     In     3      Dzx                  1.998
     In     3      Dxx-yy               1.998
     In     3      Dxy                  1.999
     In     3      S                    1.424
     In     3      Px                   0.465
     In     3      Py                   0.478
     In     3      Pz                   0.456
     In     3      S                   -0.485
     In     4      Dzz                  1.998
     In     4      Dzy                  1.998
     In     4      Dzx                  1.998
     In     4      Dxx-yy               1.998
     In     4      Dxy                  1.999
     In     4      S                    1.423
     In     4      Px                   0.476
     In     4      Py                   0.465
     In     4      Pz                   0.483
     In     4      S                   -0.516
     In     5      Dzz                  1.998
     In     5      Dzy                  1.999
     In     5      Dzx                  1.998
     In     5      Dxx-yy               1.998
     In     5      Dxy                  1.999
     In     5      S                    1.431
     In     5      Px                   0.479
     In     5      Py                   0.473
     In     5      Pz                   0.462
     In     5      S                   -0.502
     In     6      Dzz                  1.998
     In     6      Dzy                  1.999
     In     6      Dzx                  1.998
     In     6      Dxx-yy               1.998
     In     6      Dxy                  1.998
     In     6      S                    1.422
     In     6      Px                   0.478
     In     6      Py                   0.477
     In     6      Pz                   0.477
     In     6      S                   -0.502
     In     7      Dzz                  1.998
     In     7      Dzy                  1.999
     In     7      Dzx                  1.998
     In     7      Dxx-yy               1.997
     In     7      Dxy                  1.998
     In     7      S                    1.418
     In     7      Px                   0.482
     In     7      Py                   0.479
     In     7      Pz                   0.474
     In     7      S                   -0.510
     In     8      Dzz                  1.998
     In     8      Dzy                  1.999
     In     8      Dzx                  1.998
     In     8      Dxx-yy               1.997
     In     8      Dxy                  1.999
     In     8      S                    1.420
     In     8      Px                   0.481
     In     8      Py                   0.480
     In     8      Pz                   0.470
     In     8      S                   -0.504
     In     9      Dzz                  1.998
     In     9      Dzy                  1.998
     In     9      Dzx                  1.998
     In     9      Dxx-yy               1.997
     In     9      Dxy                  1.998
     In     9      S                    1.419
     In     9      Px                   0.482
     In     9      Py                   0.481
     In     9      Pz                   0.473
     In     9      S                   -0.503
     In    10      Dzz                  1.998
     In    10      Dzy                  1.998
     In    10      Dzx                  1.998
     In    10      Dxx-yy               1.997
     In    10      Dxy                  1.998
     In    10      S                    1.419
     In    10      Px                   0.484
     In    10      Py                   0.482
     In    10      Pz                   0.477
     In    10      S                   -0.519
     In    11      Dzz                  1.998
     In    11      Dzy                  1.999
     In    11      Dzx                  1.998
     In    11      Dxx-yy               1.998
     In    11      Dxy                  1.999
     In    11      S                    1.409
     In    11      Px                   0.478
     In    11      Py                   0.483
     In    11      Pz                   0.469
     In    11      S                   -0.487
     In    12      Dzz                  1.998
     In    12      Dzy                  1.999
     In    12      Dzx                  1.998
     In    12      Dxx-yy               1.997
     In    12      Dxy                  1.998
     In    12      S                    1.421
     In    12      Px                   0.483
     In    12      Py                   0.486
     In    12      Pz                   0.475
     In    12      S                   -0.512
     In    13      Dzz                  1.998
     In    13      Dzy                  1.999
     In    13      Dzx                  1.998
     In    13      Dxx-yy               1.998
     In    13      Dxy                  1.998
     In    13      S                    1.414
     In    13      Px                   0.486
     In    13      Py                   0.466
     In    13      Pz                   0.469
     In    13      S                   -0.491
     In    14      Dzz                  1.998
     In    14      Dzy                  1.999
     In    14      Dzx                  1.998
     In    14      Dxx-yy               1.998
     In    14      Dxy                  1.998
     In    14      S                    1.418
     In    14      Px                   0.490
     In    14      Py                   0.465
     In    14      Pz                   0.476
     In    14      S                   -0.510
     In    15      Dzz                  1.998
     In    15      Dzy                  1.998
     In    15      Dzx                  1.998
     In    15      Dxx-yy               1.998
     In    15      Dxy                  1.998
     In    15      S                    1.419
     In    15      Px                   0.470
     In    15      Py                   0.466
     In    15      Pz                   0.490
     In    15      S                   -0.512
     In    16      Dzz                  1.998
     In    16      Dzy                  1.998
     In    16      Dzx                  1.997
     In    16      Dxx-yy               1.997
     In    16      Dxy                  1.999
     In    16      S                    1.443
     In    16      Px                   0.637
     In    16      Py                   0.441
     In    16      Pz                   0.482
     In    16      S                   -0.429
     In    17      Dzz                  1.997
     In    17      Dzy                  1.998
     In    17      Dzx                  1.998
     In    17      Dxx-yy               1.997
     In    17      Dxy                  1.998
     In    17      S                    1.424
     In    17      Px                   0.485
     In    17      Py                   0.479
     In    17      Pz                   0.482
     In    17      S                   -0.526
     In    18      Dzz                  1.997
     In    18      Dzy                  1.998
     In    18      Dzx                  1.997
     In    18      Dxx-yy               1.997
     In    18      Dxy                  1.998
     In    18      S                    1.415
     In    18      Px                   0.488
     In    18      Py                   0.479
     In    18      Pz                   0.494
     In    18      S                   -0.539
     In    19      Dzz                  1.997
     In    19      Dzy                  1.998
     In    19      Dzx                  1.998
     In    19      Dxx-yy               1.997
     In    19      Dxy                  1.998
     In    19      S                    1.423
     In    19      Px                   0.489
     In    19      Py                   0.479
     In    19      Pz                   0.484
     In    19      S                   -0.544
     In    20      Dzz                  1.998
     In    20      Dzy                  1.998
     In    20      Dzx                  1.998
     In    20      Dxx-yy               1.997
     In    20      Dxy                  1.998
     In    20      S                    1.421
     In    20      Px                   0.485
     In    20      Py                   0.480
     In    20      Pz                   0.477
     In    20      S                   -0.524
     In    21      Dzz                  1.997
     In    21      Dzy                  1.998
     In    21      Dzx                  1.998
     In    21      Dxx-yy               1.997
     In    21      Dxy                  1.998
     In    21      S                    1.423
     In    21      Px                   0.487
     In    21      Py                   0.480
     In    21      Pz                   0.479
     In    21      S                   -0.533
     In    22      Dzz                  1.997
     In    22      Dzy                  1.998
     In    22      Dzx                  1.998
     In    22      Dxx-yy               1.997
     In    22      Dxy                  1.998
     In    22      S                    1.424
     In    22      Px                   0.494
     In    22      Py                   0.477
     In    22      Pz                   0.480
     In    22      S                   -0.549
     In    23      Dzz                  1.997
     In    23      Dzy                  1.998
     In    23      Dzx                  1.998
     In    23      Dxx-yy               1.997
     In    23      Dxy                  1.998
     In    23      S                    1.424
     In    23      Px                   0.485
     In    23      Py                   0.481
     In    23      Pz                   0.478
     In    23      S                   -0.533
     In    24      Dzz                  1.997
     In    24      Dzy                  1.998
     In    24      Dzx                  1.998
     In    24      Dxx-yy               1.997
     In    24      Dxy                  1.998
     In    24      S                    1.428
     In    24      Px                   0.490
     In    24      Py                   0.476
     In    24      Pz                   0.481
     In    24      S                   -0.545
     In    25      Dzz                  1.998
     In    25      Dzy                  1.998
     In    25      Dzx                  1.998
     In    25      Dxx-yy               1.997
     In    25      Dxy                  1.999
     In    25      S                    1.420
     In    25      Px                   0.472
     In    25      Py                   0.487
     In    25      Pz                   0.472
     In    25      S                   -0.506
     In    26      Dzz                  1.998
     In    26      Dzy                  1.999
     In    26      Dzx                  1.998
     In    26      Dxx-yy               1.998
     In    26      Dxy                  1.998
     In    26      S                    1.418
     In    26      Px                   0.492
     In    26      Py                   0.467
     In    26      Pz                   0.460
     In    26      S                   -0.498
     In    27      Dzz                  1.998
     In    27      Dzy                  1.998
     In    27      Dzx                  1.997
     In    27      Dxx-yy               1.997
     In    27      Dxy                  1.999
     In    27      S                    1.436
     In    27      Px                   0.626
     In    27      Py                   0.459
     In    27      Pz                   0.468
     In    27      S                   -0.432
     In    28      Dzz                  1.998
     In    28      Dzy                  1.998
     In    28      Dzx                  1.998
     In    28      Dxx-yy               1.997
     In    28      Dxy                  1.998
     In    28      S                    1.424
     In    28      Px                   0.485
     In    28      Py                   0.481
     In    28      Pz                   0.475
     In    28      S                   -0.501
     In    29      Dzz                  1.997
     In    29      Dzy                  1.998
     In    29      Dzx                  1.998
     In    29      Dxx-yy               1.997
     In    29      Dxy                  1.998
     In    29      S                    1.413
     In    29      Px                   0.494
     In    29      Py                   0.473
     In    29      Pz                   0.485
     In    29      S                   -0.557
     In    30      Dzz                  1.997
     In    30      Dzy                  1.998
     In    30      Dzx                  1.998
     In    30      Dxx-yy               1.997
     In    30      Dxy                  1.998
     In    30      S                    1.428
     In    30      Px                   0.499
     In    30      Py                   0.476
     In    30      Pz                   0.478
     In    30      S                   -0.553
     In    31      Dzz                  1.997
     In    31      Dzy                  1.998
     In    31      Dzx                  1.998
     In    31      Dxx-yy               1.997
     In    31      Dxy                  1.998
     In    31      S                    1.428
     In    31      Px                   0.492
     In    31      Py                   0.477
     In    31      Pz                   0.480
     In    31      S                   -0.544
     In    32      Dzz                  1.997
     In    32      Dzy                  1.998
     In    32      Dzx                  1.997
     In    32      Dxx-yy               1.997
     In    32      Dxy                  1.998
     In    32      S                    1.428
     In    32      Px                   0.492
     In    32      Py                   0.477
     In    32      Pz                   0.483
     In    32      S                   -0.548
     In    33      Dzz                  1.997
     In    33      Dzy                  1.998
     In    33      Dzx                  1.997
     In    33      Dxx-yy               1.997
     In    33      Dxy                  1.998
     In    33      S                    1.424
     In    33      Px                   0.492
     In    33      Py                   0.477
     In    33      Pz                   0.481
     In    33      S                   -0.548
     In    34      Dzz                  1.997
     In    34      Dzy                  1.998
     In    34      Dzx                  1.998
     In    34      Dxx-yy               1.997
     In    34      Dxy                  1.998
     In    34      S                    1.425
     In    34      Px                   0.490
     In    34      Py                   0.478
     In    34      Pz                   0.479
     In    34      S                   -0.540
     In    35      Dzz                  1.997
     In    35      Dzy                  1.998
     In    35      Dzx                  1.997
     In    35      Dxx-yy               1.997
     In    35      Dxy                  1.998
     In    35      S                    1.432
     In    35      Px                   0.496
     In    35      Py                   0.474
     In    35      Pz                   0.484
     In    35      S                   -0.566
     In    36      Dzz                  1.997
     In    36      Dzy                  1.998
     In    36      Dzx                  1.997
     In    36      Dxx-yy               1.997
     In    36      Dxy                  1.998
     In    36      S                    1.431
     In    36      Px                   0.491
     In    36      Py                   0.476
     In    36      Pz                   0.482
     In    36      S                   -0.545
     In    37      Dzz                  1.997
     In    37      Dzy                  1.998
     In    37      Dzx                  1.998
     In    37      Dxx-yy               1.997
     In    37      Dxy                  1.998
     In    37      S                    1.422
     In    37      Px                   0.486
     In    37      Py                   0.478
     In    37      Pz                   0.480
     In    37      S                   -0.534
     In    38      Dzz                  1.998
     In    38      Dzy                  1.998
     In    38      Dzx                  1.998
     In    38      Dxx-yy               1.997
     In    38      Dxy                  1.998
     In    38      S                    1.420
     In    38      Px                   0.485
     In    38      Py                   0.479
     In    38      Pz                   0.477
     In    38      S                   -0.517
     In    39      Dzz                  1.998
     In    39      Dzy                  1.999
     In    39      Dzx                  1.998
     In    39      Dxx-yy               1.997
     In    39      Dxy                  1.999
     In    39      S                    1.427
     In    39      Px                   0.488
     In    39      Py                   0.481
     In    39      Pz                   0.469
     In    39      S                   -0.516
     In    40      Dzz                  1.998
     In    40      Dzy                  1.999
     In    40      Dzx                  1.998
     In    40      Dxx-yy               1.997
     In    40      Dxy                  1.999
     In    40      S                    1.427
     In    40      Px                   0.473
     In    40      Py                   0.491
     In    40      Pz                   0.432
     In    40      S                   -0.484
     In    41      Dzz                  1.998
     In    41      Dzy                  1.998
     In    41      Dzx                  1.998
     In    41      Dxx-yy               1.997
     In    41      Dxy                  1.998
     In    41      S                    1.429
     In    41      Px                   0.485
     In    41      Py                   0.481
     In    41      Pz                   0.476
     In    41      S                   -0.525
     In    42      Dzz                  1.998
     In    42      Dzy                  1.999
     In    42      Dzx                  1.998
     In    42      Dxx-yy               1.997
     In    42      Dxy                  1.999
     In    42      S                    1.426
     In    42      Px                   0.482
     In    42      Py                   0.485
     In    42      Pz                   0.465
     In    42      S                   -0.506
     In    43      Dzz                  1.998
     In    43      Dzy                  1.998
     In    43      Dzx                  1.998
     In    43      Dxx-yy               1.997
     In    43      Dxy                  1.998
     In    43      S                    1.422
     In    43      Px                   0.485
     In    43      Py                   0.480
     In    43      Pz                   0.472
     In    43      S                   -0.515
     In    44      Dzz                  1.997
     In    44      Dzy                  1.998
     In    44      Dzx                  1.998
     In    44      Dxx-yy               1.997
     In    44      Dxy                  1.998
     In    44      S                    1.424
     In    44      Px                   0.492
     In    44      Py                   0.479
     In    44      Pz                   0.476
     In    44      S                   -0.536
     In    45      Dzz                  1.998
     In    45      Dzy                  1.998
     In    45      Dzx                  1.998
     In    45      Dxx-yy               1.997
     In    45      Dxy                  1.998
     In    45      S                    1.423
     In    45      Px                   0.488
     In    45      Py                   0.479
     In    45      Pz                   0.476
     In    45      S                   -0.523
     In    46      Dzz                  1.998
     In    46      Dzy                  1.998
     In    46      Dzx                  1.998
     In    46      Dxx-yy               1.997
     In    46      Dxy                  1.998
     In    46      S                    1.419
     In    46      Px                   0.481
     In    46      Py                   0.482
     In    46      Pz                   0.473
     In    46      S                   -0.505
     In    47      Dzz                  1.997
     In    47      Dzy                  1.998
     In    47      Dzx                  1.998
     In    47      Dxx-yy               1.997
     In    47      Dxy                  1.998
     In    47      S                    1.426
     In    47      Px                   0.489
     In    47      Py                   0.478
     In    47      Pz                   0.475
     In    47      S                   -0.530
     In    48      Dzz                  1.998
     In    48      Dzy                  1.999
     In    48      Dzx                  1.998
     In    48      Dxx-yy               1.997
     In    48      Dxy                  1.998
     In    48      S                    1.423
     In    48      Px                   0.487
     In    48      Py                   0.485
     In    48      Pz                   0.472
     In    48      S                   -0.508
  -------------------------------------------
                           Total:     864.000
  -------------------------------------------

     Atomic Populations (Mulliken)
     -----------------------------
Species          Ion     s       p       d       f      Total   Charge (e)
==========================================================================
  P               1     1.734   3.744   0.000   0.000   5.478    -0.478
  P               2     1.743   3.731   0.000   0.000   5.474    -0.474
  P               3     1.746   3.920   0.000   0.000   5.666    -0.666
  P               4     1.740   3.934   0.000   0.000   5.674    -0.674
  P               5     1.744   3.920   0.000   0.000   5.665    -0.665
  P               6     1.739   3.931   0.000   0.000   5.670    -0.670
  P               7     1.741   3.927   0.000   0.000   5.669    -0.669
  P               8     1.742   3.927   0.000   0.000   5.668    -0.668
  P               9     1.744   3.923   0.000   0.000   5.667    -0.667
  P              10     1.738   3.934   0.000   0.000   5.672    -0.672
  P              11     1.756   3.896   0.000   0.000   5.652    -0.652
  P              12     1.743   3.919   0.000   0.000   5.662    -0.662
  P              13     1.742   3.925   0.000   0.000   5.667    -0.667
  P              14     1.745   3.920   0.000   0.000   5.665    -0.665
  P              15     1.736   3.941   0.000   0.000   5.677    -0.677
  P              16     1.730   3.947   0.000   0.000   5.677    -0.677
  P              17     1.735   3.939   0.000   0.000   5.674    -0.674
  P              18     1.732   3.944   0.000   0.000   5.676    -0.676
  P              19     1.732   3.945   0.000   0.000   5.677    -0.677
  P              20     1.736   3.938   0.000   0.000   5.674    -0.674
  P              21     1.733   3.943   0.000   0.000   5.676    -0.676
  P              22     1.729   3.948   0.000   0.000   5.677    -0.677
  P              23     1.736   3.935   0.000   0.000   5.671    -0.671
  P              24     1.730   3.943   0.000   0.000   5.673    -0.673
  P              25     1.747   3.890   0.000   0.000   5.637    -0.637
  P              26     1.743   3.901   0.000   0.000   5.644    -0.644
  P              27     1.733   3.928   0.000   0.000   5.662    -0.662
  P              28     1.734   3.941   0.000   0.000   5.675    -0.675
  P              29     1.728   3.949   0.000   0.000   5.678    -0.678
  P              30     1.732   3.943   0.000   0.000   5.675    -0.675
  P              31     1.730   3.946   0.000   0.000   5.676    -0.676
  P              32     1.730   3.948   0.000   0.000   5.677    -0.677
  P              33     1.727   3.950   0.000   0.000   5.677    -0.677
  P              34     1.732   3.941   0.000   0.000   5.673    -0.673
  P              35     1.721   3.958   0.000   0.000   5.678    -0.678
  P              36     1.731   3.932   0.000   0.000   5.663    -0.663
  P              37     1.746   3.919   0.000   0.000   5.665    -0.665
  P              38     1.741   3.925   0.000   0.000   5.666    -0.666
  P              39     1.738   3.933   0.000   0.000   5.671    -0.671
  P              40     1.747   3.917   0.000   0.000   5.664    -0.664
  P              41     1.735   3.938   0.000   0.000   5.673    -0.673
  P              42     1.739   3.930   0.000   0.000   5.670    -0.670
  P              43     1.738   3.932   0.000   0.000   5.671    -0.671
  P              44     1.734   3.941   0.000   0.000   5.674    -0.674
  P              45     1.738   3.933   0.000   0.000   5.670    -0.670
  P              46     1.743   3.924   0.000   0.000   5.667    -0.667
  P              47     1.737   3.929   0.000   0.000   5.666    -0.666
  P              48     1.743   3.915   0.000   0.000   5.658    -0.658
  In              1     0.915   1.439   9.988   0.000  12.343     0.657
  In              2     0.900   1.454   9.988   0.000  12.342     0.658
  In              3     0.940   1.399   9.991   0.000  12.329     0.671
  In              4     0.907   1.425   9.990   0.000  12.321     0.679
  In              5     0.929   1.414   9.991   0.000  12.334     0.666
  In              6     0.920   1.432   9.990   0.000  12.342     0.658
  In              7     0.908   1.435   9.990   0.000  12.334     0.666
  In              8     0.916   1.431   9.990   0.000  12.337     0.663
  In              9     0.916   1.437   9.990   0.000  12.342     0.658
  In             10     0.900   1.443   9.989   0.000  12.332     0.668
  In             11     0.922   1.429   9.991   0.000  12.341     0.659
  In             12     0.909   1.444   9.990   0.000  12.343     0.657
  In             13     0.923   1.421   9.990   0.000  12.334     0.666
  In             14     0.908   1.431   9.990   0.000  12.329     0.671
  In             15     0.907   1.426   9.989   0.000  12.322     0.678
  In             16     1.013   1.560   9.989   0.000  12.562     0.438
  In             17     0.897   1.446   9.989   0.000  12.332     0.668
  In             18     0.876   1.462   9.988   0.000  12.326     0.674
  In             19     0.879   1.452   9.989   0.000  12.320     0.680
  In             20     0.897   1.442   9.989   0.000  12.328     0.672
  In             21     0.891   1.446   9.989   0.000  12.326     0.674
  In             22     0.875   1.451   9.988   0.000  12.315     0.685
  In             23     0.891   1.445   9.989   0.000  12.325     0.675
  In             24     0.883   1.446   9.989   0.000  12.318     0.682
  In             25     0.914   1.431   9.990   0.000  12.335     0.665
  In             26     0.920   1.419   9.991   0.000  12.330     0.670
  In             27     1.004   1.553   9.989   0.000  12.546     0.454
  In             28     0.923   1.441   9.989   0.000  12.353     0.647
  In             29     0.856   1.452   9.988   0.000  12.296     0.704
  In             30     0.876   1.453   9.988   0.000  12.317     0.683
  In             31     0.884   1.449   9.988   0.000  12.322     0.678
  In             32     0.879   1.452   9.988   0.000  12.319     0.681
  In             33     0.875   1.450   9.988   0.000  12.314     0.686
  In             34     0.886   1.447   9.989   0.000  12.321     0.679
  In             35     0.866   1.454   9.988   0.000  12.308     0.692
  In             36     0.886   1.448   9.988   0.000  12.323     0.677
  In             37     0.888   1.443   9.989   0.000  12.321     0.679
  In             38     0.904   1.441   9.989   0.000  12.334     0.666
  In             39     0.910   1.439   9.990   0.000  12.339     0.661
  In             40     0.943   1.396   9.991   0.000  12.330     0.670
  In             41     0.904   1.442   9.989   0.000  12.336     0.664
  In             42     0.920   1.432   9.990   0.000  12.342     0.658
  In             43     0.907   1.437   9.990   0.000  12.334     0.666
  In             44     0.889   1.446   9.989   0.000  12.324     0.676
  In             45     0.900   1.443   9.989   0.000  12.332     0.668
  In             46     0.914   1.436   9.990   0.000  12.340     0.660
  In             47     0.896   1.443   9.989   0.000  12.328     0.672
  In             48     0.915   1.444   9.990   0.000  12.348     0.652
==========================================================================

                 Bond                   Population      Length (A)
======================================================================
              P 1  -- P 2                    0.53        2.25209
              P 35 -- In 1                   0.58        2.50449
              P 35 -- In 2                   1.38        2.50716
              P 35 -- In 35                  0.56        2.50887
              P 24 -- In 2                   0.60        2.51055
              P 29 -- In 29                  0.57        2.51779
              P 1  -- In 3                   1.23        2.51890
              P 36 -- In 14                  0.54        2.51923
              P 32 -- In 32                  0.56        2.52302
              P 33 -- In 33                  0.56        2.52339
              P 22 -- In 35                  0.58        2.52383
              P 15 -- In 18                  0.51        2.52505
              P 27 -- In 30                  0.60        2.52514
              P 31 -- In 31                  0.56        2.52803
              P 22 -- In 22                  0.57        2.52927
              P 33 -- In 36                  0.58        2.52935
              P 17 -- In 19                  0.56        2.52943
              P 33 -- In 35                  1.38        2.52972
              P 19 -- In 22                  0.57        2.53066
              P 18 -- In 32                  0.56        2.53122
              P 47 -- In 13                  0.55        2.53265
              P 34 -- In 47                  0.56        2.53265
              P 4  -- In 17                  0.51        2.53371
              P 16 -- In 18                  1.42        2.53372
              P 16 -- In 29                  0.56        2.53436
              P 36 -- In 1                   1.39        2.53583
              P 13 -- In 15                  1.30        2.53585
              P 29 -- In 31                  0.57        2.53608
              P 18 -- In 18                  0.57        2.53650
              P 21 -- In 24                  0.57        2.53688
              P 19 -- In 19                  0.57        2.53705
              P 32 -- In 33                  0.57        2.53726
              P 14 -- In 4                   1.29        2.53750
              P 27 -- In 29                  1.39        2.53817
              P 36 -- In 36                  0.54        2.53826
              P 28 -- In 30                  1.33        2.53837
              P 20 -- In 21                  0.56        2.53891
              P 31 -- In 34                  0.57        2.53892
              P 6  -- In 20                  0.55        2.54030
              P 34 -- In 34                  0.56        2.54101
              P 29 -- In 32                  1.36        2.54210
              P 30 -- In 44                  0.57        2.54249
              P 2  -- In 40                  1.16        2.54299
              P 30 -- In 30                  0.55        2.54311
              P 24 -- In 24                  0.53        2.54366
              P 24 -- In 37                  1.33        2.54382
              P 44 -- In 45                  0.56        2.54392
              P 45 -- In 48                  0.54        2.54420
              P 31 -- In 33                  1.36        2.54556
              P 7  -- In 10                  0.55        2.54578
              P 21 -- In 21                  0.57        2.54743
              P 30 -- In 31                  1.35        2.54826
              P 39 -- In 41                  1.31        2.54873
              P 8  -- In 9                   0.55        2.54912
              P 22 -- In 24                  1.37        2.54918
              P 44 -- In 44                  0.56        2.54974
              P 34 -- In 36                  1.35        2.55056
              P 10 -- In 23                  0.56        2.55091
              P 32 -- In 22                  1.37        2.55112
              P 5  -- In 7                   0.54        2.55131
              P 41 -- In 43                  0.56        2.55232
              P 23 -- In 37                  0.57        2.55302
              P 41 -- In 44                  1.34        2.55336
              P 3  -- In 5                   1.30        2.55365
              P 43 -- In 46                  0.55        2.55411
              P 21 -- In 23                  1.35        2.55428
              P 17 -- In 17                  0.57        2.55439
              P 23 -- In 38                  1.33        2.55465
              P 44 -- In 34                  1.34        2.55481
              P 9  -- In 12                  0.55        2.55500
              P 18 -- In 19                  1.36        2.55528
              P 15 -- In 17                  1.39        2.55541
              P 42 -- In 8                   0.55        2.55628
              P 38 -- In 28                  1.27        2.55633
              P 37 -- In 39                  1.25        2.55639
              P 23 -- In 23                  0.55        2.55669
              P 37 -- In 37                  0.56        2.55703
              P 28 -- In 28                  0.56        2.55753
              P 19 -- In 21                  1.35        2.55756
              P 28 -- In 41                  0.58        2.55774
              P 41 -- In 41                  0.56        2.55829
              P 25 -- In 25                  0.58        2.55874
              P 26 -- In 16                  1.27        2.55948
              P 38 -- In 38                  0.56        2.55966
              P 20 -- In 20                  0.58        2.56035
              P 3  -- In 6                   0.50        2.56188
              P 47 -- In 47                  0.56        2.56258
              P 48 -- In 26                  0.53        2.56286
              P 39 -- In 39                  0.56        2.56300
              P 47 -- In 14                  1.33        2.56303
              P 17 -- In 20                  1.34        2.56335
              P 25 -- In 28                  0.56        2.56349
              P 43 -- In 45                  1.33        2.56396
              P 46 -- In 11                  0.55        2.56419
              P 4  -- In 6                   1.36        2.56483
              P 45 -- In 45                  0.56        2.56491
              P 20 -- In 10                  1.33        2.56501
              P 45 -- In 47                  1.34        2.56535
              P 10 -- In 12                  1.32        2.56563
              P 25 -- In 27                  1.24        2.56592
              P 42 -- In 43                  1.32        2.56605
              P 10 -- In 10                  0.57        2.56881
              P 12 -- In 12                  0.57        2.56953
              P 8  -- In 46                  1.31        2.57079
              P 5  -- In 8                   1.31        2.57086
              P 46 -- In 48                  1.31        2.57100
              P 6  -- In 7                   1.33        2.57290
              P 43 -- In 43                  0.57        2.57398
              P 48 -- In 48                  0.57        2.57418
              P 39 -- In 42                  0.56        2.57439
              P 16 -- In 16                  0.53        2.57514
              P 12 -- In 25                  1.27        2.57538
              P 42 -- In 42                  0.56        2.57553
              P 40 -- In 40                  0.57        2.57556
              P 12 -- In 38                  0.58        2.57578
              P 9  -- In 11                  1.31        2.57589
              P 6  -- In 6                   0.57        2.57593
              P 7  -- In 9                   1.31        2.57667
              P 40 -- In 42                  1.27        2.57861
              P 27 -- In 27                  0.53        2.57930
              P 48 -- In 13                  1.31        2.57954
              P 38 -- In 39                  0.57        2.58178
              P 2  -- In 2                   0.53        2.58254
              P 15 -- In 15                  0.55        2.58703
              P 11 -- In 26                  1.27        2.58799
              P 3  -- In 3                   0.54        2.58953
              P 46 -- In 46                  0.56        2.59076
              P 40 -- In 5                   0.52        2.59118
              P 7  -- In 7                   0.57        2.59341
              P 9  -- In 9                   0.56        2.59650
              P 8  -- In 8                   0.57        2.59662
              P 26 -- In 15                  0.58        2.59890
              P 4  -- In 4                   0.54        2.59914
              P 14 -- In 14                  0.52        2.59972
              P 13 -- In 13                  0.53        2.60084
              P 37 -- In 40                  0.58        2.60289
              P 26 -- In 26                  0.55        2.60357
              P 5  -- In 5                   0.56        2.60962
              P 1  -- In 1                   0.48        2.61212
              P 11 -- In 25                  0.54        2.62441
              P 11 -- In 11                  0.55        2.62473
              P 13 -- In 4                   0.57        2.62503
              P 14 -- In 3                   0.57        2.64628
             In 16 -- In 27                 -0.23        2.83572
======================================================================

 Hirshfeld supercell size:           1           1           4
Standard grid dimensions: 250 250 180
Fine grid dimensions:     250 250 180


     Hirshfeld Analysis
     ------------------
Species   Ion     Hirshfeld Charge (e)
======================================
  P        1                -0.15
  P        2                -0.14
  P        3                -0.24
  P        4                -0.25
  P        5                -0.24
  P        6                -0.24
  P        7                -0.24
  P        8                -0.24
  P        9                -0.24
  P       10                -0.24
  P       11                -0.23
  P       12                -0.24
  P       13                -0.24
  P       14                -0.24
  P       15                -0.24
  P       16                -0.25
  P       17                -0.24
  P       18                -0.24
  P       19                -0.24
  P       20                -0.24
  P       21                -0.24
  P       22                -0.24
  P       23                -0.24
  P       24                -0.24
  P       25                -0.24
  P       26                -0.25
  P       27                -0.24
  P       28                -0.24
  P       29                -0.24
  P       30                -0.24
  P       31                -0.24
  P       32                -0.24
  P       33                -0.24
  P       34                -0.24
  P       35                -0.25
  P       36                -0.24
  P       37                -0.24
  P       38                -0.24
  P       39                -0.24
  P       40                -0.24
  P       41                -0.24
  P       42                -0.24
  P       43                -0.24
  P       44                -0.24
  P       45                -0.24
  P       46                -0.24
  P       47                -0.24
  P       48                -0.24
  In       1                 0.24
  In       2                 0.23
  In       3                 0.25
  In       4                 0.24
  In       5                 0.25
  In       6                 0.24
  In       7                 0.24
  In       8                 0.24
  In       9                 0.24
  In      10                 0.24
  In      11                 0.24
  In      12                 0.23
  In      13                 0.25
  In      14                 0.24
  In      15                 0.24
  In      16                 0.14
  In      17                 0.24
  In      18                 0.23
  In      19                 0.24
  In      20                 0.24
  In      21                 0.24
  In      22                 0.24
  In      23                 0.24
  In      24                 0.24
  In      25                 0.24
  In      26                 0.25
  In      27                 0.15
  In      28                 0.23
  In      29                 0.23
  In      30                 0.23
  In      31                 0.24
  In      32                 0.24
  In      33                 0.24
  In      34                 0.24
  In      35                 0.24
  In      36                 0.24
  In      37                 0.24
  In      38                 0.24
  In      39                 0.24
  In      40                 0.25
  In      41                 0.24
  In      42                 0.24
  In      43                 0.24
  In      44                 0.24
  In      45                 0.24
  In      46                 0.24
  In      47                 0.24
  In      48                 0.23
======================================

 
 A BibTeX formatted list of references used in this run has been written to 
 90deg_Singlepoints_0.bib
 
Initialisation time =     30.95 s
Calculation time    =   5734.13 s
Finalisation time   =     74.30 s
Total time          =   5839.38 s
Peak Memory Use     = 8517224 kB
 
Overall parallel efficiency rating: Terrible (32%)
 
Data was distributed by:-
G-vector (6-way); efficiency rating: Poor (35%)
k-point (20-way); efficiency rating: Very good (80%)
