 +-------------------------------------------------+
 |                                                 |
 |      CCC   AA    SSS  TTTTT  EEEEE  PPPP        |
 |     C     A  A  S       T    E      P   P       |
 |     C     AAAA   SS     T    EEE    PPPP        |
 |     C     A  A     S    T    E      P           |
 |      CCC  A  A  SSS     T    EEEEE  P           |
 |                                                 |
 +-------------------------------------------------+
 |                                                 |
 | Welcome to Academic Release CASTEP version 22.11|
 | Ab Initio Total Energy Program                  |
 |                                                 |
 | Authors:                                        |
 | M. Segall, M. Probert, C. Pickard, P. Hasnip,   |
 | S. Clark, K. Refson, J. R. Yates, M. Payne      |
 |                                                 |
 | Contributors:                                   |
 | P. Lindan, P. Haynes, J. White, V. Milman,      |
 | N. Govind, M. Gibson, P. Tulip, V. Cocula,      |
 | B. Montanari, D. Quigley, M. Glover,            |
 | L. Bernasconi, A. Perlov, M. Plummer,           |
 | E. McNellis, J. Meyer, J. Gale, D. Jochym       |
 | J. Aarons, B. Walker, R. Gillen, D. Jones       |
 | T. Green, I. J. Bush, C. J. Armstrong,          |
 | E. J. Higgins, E. L. Brown, M. S. McFly,        |
 | J. Wilkins, B-C. Shih, P. J. P. Byrne,          |
 | R. J. Maurer, J. C. Womack, J. Dziedzic,        |
 | A. Bartok-Partay, L. LeBlanc, T. K. Stenczel,   |
 | J. Kermode, S. Sturniolo, B. Shi, B. Durham     |
 | M. Evans, M. J. Smith                           |
 |                                                 |
 | Copyright (c) 2000 - 2021                       |
 |                                                 |
 |     Distributed under license from Cambridge    |
 |     Enterprise for academic use only.           |
 |                                                 |
 | Please cite                                     |
 |                                                 |
 |     "First principles methods using CASTEP"     |
 |                                                 |
 |         Zeitschrift fuer Kristallographie       |
 |           220(5-6) pp. 567-570 (2005)           |
 |                                                 |
 | S. J. Clark, M. D. Segall, C. J. Pickard,       |
 | P. J. Hasnip, M. J. Probert, K. Refson,         |
 | M. C. Payne                                     |
 |                                                 |
 |       in all publications arising from          |
 |              your use of CASTEP                 |
 |                                                 |
 +-------------------------------------------------+
 |                                                 |
 |              http://www.castep.org              |
 |                                                 |
 +-------------------------------------------------+



 Compiled for linux_x86_64_gfortran10 on Wed, 18 Jan 2023 22:58:45 +0000
 from code version b807d1bba+  Castep221_branch  Wed Sep 14 11:18:35 2022 +0100
 Compiler: GNU Fortran 10.2.0; Optimisation: fast
 MATHLIBS: openblas (LAPACK version 3.9.0)
 FFT Lib : fftw3 version fftw-3.3.8-sse2-avx-avx2-avx2_128
 Fundamental constants values: CODATA 2014

 Run started: Tue, 25 Mar 2025 17:14:00 +0000

 Atomic calculation performed for P: 1s2 2s2 2p6 3s2 3p3

 Converged in 47 iterations to an ae energy of -9309.074 eV

   ============================================================                
   | Pseudopotential Report - Date of generation 25-03-2025   |                
   ------------------------------------------------------------                
   | Element: P Ionic charge:  5.00 Level of theory: RSCAN    |                
   | Atomic Solver: Koelling-Harmon                           |                
   |                                                          |                
   |               Reference Electronic Structure             |                
   |         Orbital         Occupation         Energy        |                
   |            3s              2.000           -0.535        |                
   |            3p              3.000           -0.209        |                
   |                                                          |                
   |                 Pseudopotential Definition               |                
   |        Beta     l      e      Rc     scheme   norm       |                
   |          1      0   -0.535   1.807     qc      0         |                
   |          2      0    0.250   1.807     qc      0         |                
   |          3      1   -0.209   1.807     qc      0         |                
   |          4      1    0.250   1.807     qc      0         |                
   |          5      2    0.000   1.807     qc      0         |                
   |          6      2    0.250   1.807     qc      0         |                
   |         loc     3    0.000   1.807     pn      0         |                
   |                                                          |                
   | Augmentation charge Rinner = 1.263                       |                
   | Partial core correction Rc = 1.263                       |                
   ------------------------------------------------------------                
   | "3|1.8|4|4|5|30:31:32"                                   |                
   ------------------------------------------------------------                
   |      Author: Chris J. Pickard, Cambridge University      |                
   ============================================================                
 Warning: otfg_output_psp cannot write out meta-GGA pseudopotentials presently.

 Atomic calculation performed for In:
 1s2 2s2 2p6 3s2 3p6 3d10 4s2 4p6 4d10 5s2 5p1

 Converged in 84 iterations to an ae energy of -160093.327 eV

   ============================================================                
   | Pseudopotential Report - Date of generation 25-03-2025   |                
   ------------------------------------------------------------                
   | Element: In Ionic charge: 13.00 Level of theory: RSCAN   |                
   | Atomic Solver: Koelling-Harmon                           |                
   |                                                          |                
   |               Reference Electronic Structure             |                
   |         Orbital         Occupation         Energy        |                
   |            4d             10.000           -0.711        |                
   |            5s              2.000           -0.313        |                
   |            5p              1.000           -0.095        |                
   |                                                          |                
   |                 Pseudopotential Definition               |                
   |        Beta     l      e      Rc     scheme   norm       |                
   |          1      0   -0.313   2.501     qc      0         |                
   |          2      0    0.250   2.501     qc      0         |                
   |          3      1   -0.095   2.501     qc      0         |                
   |          4      1    0.250   2.501     qc      0         |                
   |          5      2   -0.711   2.207     qc      0         |                
   |          6      2    0.250   2.207     qc      0         |                
   |         loc     3    0.000   2.501     pn      0         |                
   |                                                          |                
   | Augmentation charge Rinner = 1.504                       |                
   | Partial core correction Rc = 1.504                       |                
   ------------------------------------------------------------                
   | "3|2.5|2.5|1.5|7|8|9|50:51:42U2.2U2.2"                   |                
   ------------------------------------------------------------                
   |      Author: Chris J. Pickard, Cambridge University      |                
   ============================================================                
 Warning: otfg_output_psp cannot write out meta-GGA pseudopotentials presently.

 Pseudo atomic calculation performed for P 3s2 3p3

 Converged in 23 iterations to a total energy of -208.0292 eV

 Pseudo atomic calculation performed for In 4d10 5s2 5p1

 Converged in 42 iterations to a total energy of -1747.4501 eV
 Calculation parallelised over 56 processes.
 Data is distributed by k-point(56-way)

 ************************************ Title ************************************
 

 ***************************** General Parameters ******************************
  
 output verbosity                               : normal  (1)
 write checkpoint data to                       : Bulk_Elastic_2.check
 type of calculation                            : geometry optimization
 stress calculation                             : on
 density difference calculation                 : off
 electron localisation func (ELF) calculation   : off
 Hirshfeld analysis                             : on
 polarisation (Berry phase) analysis            : off
 molecular orbital projected DOS                : off
 deltaSCF calculation                           : off
 unlimited duration calculation
 timing information                             : on
 memory usage estimate                          : on
 write extra output files                       : on
 write final potential to formatted file        : off
 write final density to formatted file          : off
 write BibTeX reference list                    : on
 write OTFG pseudopotential files               : on
 write electrostatic potential file             : on
 write bands file                               : on
 checkpoint writing                             : off
  
 output         length unit                     : A
 output           mass unit                     : amu
 output           time unit                     : ps
 output         charge unit                     : e
 output           spin unit                     : hbar/2
 output         energy unit                     : eV
 output          force unit                     : eV/A
 output       velocity unit                     : A/ps
 output       pressure unit                     : GPa
 output     inv_length unit                     : 1/A
 output      frequency unit                     : cm-1
 output force constant unit                     : eV/A**2
 output         volume unit                     : A**3
 output   IR intensity unit                     : (D/A)**2/amu
 output         dipole unit                     : D
 output         efield unit                     : eV/A/e
 output        entropy unit                     : J/mol/K
 output    efield chi2 unit                     : pm/V
  
 wavefunctions paging                           : none
 random number generator seed                   : randomised (171400961)
 data distribution                              : optimal for this architecture
 optimization strategy                          : balance speed and memory

 *********************** Exchange-Correlation Parameters ***********************
  
 using functional                               : RSCAN
 relativistic treatment                         : Koelling-Harmon
 DFT+D: Semi-empirical dispersion correction    : off

 ************************* Pseudopotential Parameters **************************
  
 pseudopotential representation                 : reciprocal space
 <beta|phi> representation                      : reciprocal space
 spin-orbit coupling                            : off

 **************************** Basis Set Parameters *****************************
  
 plane wave basis set cut-off                   :   900.0000   eV
 size of standard grid                          :     2.0000
 size of   fine   gmax                          :    30.7390   1/A
 finite basis set correction                    : none

 **************************** Electronic Parameters ****************************
  
 number of  electrons                           :  72.00    
 net charge of system                           :  0.000    
 treating system as non-spin-polarized
 number of bands                                :         43

 ********************* Electronic Minimization Parameters **********************
  
 Method: Treating system as metallic with density mixing treatment of electrons,
         and number of  SD  steps               :          1
         and number of  CG  steps               :          4
  
 total energy / atom convergence tol.           : 0.1000E-07   eV
 eigen-energy convergence tolerance             : 0.2222E-08   eV
 max force / atom convergence tol.              : ignored
 convergence tolerance window                   :          3   cycles
 max. number of SCF cycles                      :         50
 number of fixed-spin iterations                :         10
 smearing scheme                                : Gaussian
 smearing width                                 : 0.2000       eV
 Fermi energy convergence tolerance             : 0.2721E-13   eV
 periodic dipole correction                     : NONE

 ************************** Density Mixing Parameters **************************
  
 density-mixing scheme                          : Pulay
 max. length of mixing history                  :         15
 charge density mixing amplitude                : 0.5000    
 cut-off energy for mixing                      :  900.0       eV

 *********************** Population Analysis Parameters ************************
  
 Population analysis with cutoff                :  3.000       A
 Population analysis output                     : summary and pdos components

 ********************** Geometry Optimization Parameters ***********************
  
 optimization method                            : LBFGS
 max. no. of LBFGS updates                      : unbounded
 preconditioned LBFGS is activated
 preconditioner type                            : EXP
     stabilization constant                     :     0.1000
     parameter A                                :     3.0000
     nearest neighbor distance                  : automatic
     cut-off distance                           : automatic
     parameter mu                               : automatic
 variable cell method                           : fixed basis quality
 max. number of steps                           :         30
 estimated bulk modulus                         :  500.0       GPa
 estimated <frequency>                          :  1668.       cm-1
 geom line minimiser                            : on
 with line minimiser tolerance                  :     0.4000
 total energy convergence tolerance             : 0.2000E-04   eV/atom
        max ionic |force| tolerance             : 0.1000E-02   eV/A
 max ionic |displacement| tolerance             : 0.1000E-02   A
   max |stress component| tolerance             : 0.1000       GPa
 convergence tolerance window                   :          2   steps
 backup results every                           :          5   steps
 write geom trajectory file                     : on

 *******************************************************************************
  

                           -------------------------------
                                      Unit Cell
                           -------------------------------
        Real Lattice(A)                      Reciprocal Lattice(1/A)
     5.8949400    -0.0000040    -0.0000040        1.065860773   0.000000723   0.000000723
    -0.0000040     5.9008410    -0.0029540        0.000000723   1.064795151   0.000533043
    -0.0000040    -0.0029540     5.9008410        0.000000723   0.000533043   1.064795151

                       Lattice parameters(A)       Cell Angles
                    a =      5.894940          alpha =   90.057365
                    b =      5.900842          beta  =   90.000078
                    c =      5.900842          gamma =   90.000078

                       Current cell volume =           205.261314       A**3
                                   density =             2.841096   AMU/A**3
                                           =             4.717750     g/cm^3

                           -------------------------------
                                     Cell Contents
                           -------------------------------
                         Total number of ions in cell =    8
                      Total number of species in cell =    2
                        Max number of any one species =    4

            xxxxxxxxxxxxxxxxxxxxxxxxxxxxxxxxxxxxxxxxxxxxxxxxxxxxxxxxxxxx
            x  Element    Atom        Fractional coordinates of atoms  x
            x            Number           u          v          w      x
            x----------------------------------------------------------x
            x  P            1         0.250000   0.250000   0.750000   x 
            x  P            2         0.750000   0.250000   0.250000   x 
            x  P            3         0.250000   0.750000   0.250000   x 
            x  P            4         0.750000   0.750000   0.750000   x 
            x  In           1         0.000000   0.000000   0.000000   x 
            x  In           2         0.500000   0.000000   0.500000   x 
            x  In           3        -0.000000   0.500000   0.500000   x 
            x  In           4         0.500000   0.500000   0.000000   x 
            xxxxxxxxxxxxxxxxxxxxxxxxxxxxxxxxxxxxxxxxxxxxxxxxxxxxxxxxxxxx


                         No user defined ionic velocities

                           -------------------------------
                                   Details of Species
                           -------------------------------

                               Mass of species in AMU
                                    P   30.9737600
                                    In  114.8180000

                          Electric Quadrupole Moment (Barn)
                                    P    1.0000000 No Isotope Defined
                                    In    0.7700000 Isotope115

                          Files used for pseudopotentials:
                                    P 3|1.8|4|4|5|30:31:32
                                    In 3|2.5|2.5|1.5|7|8|9|50:51:42U2.2U2.2

                           -------------------------------
                              k-Points For BZ Sampling
                           -------------------------------
                       MP grid size for SCF calculation is  6  6  6
                            with an offset of   0.083  0.083  0.083
                       Number of kpoints used =           112

                           -------------------------------
                               Symmetry and Constraints
                           -------------------------------

                      Cell is a supercell containing 4 primitive cells
                      Maximum deviation from symmetry =  0.00000         ANG

                      Number of symmetry operations   =           1
                      Number of ionic constraints     =           3
                      Point group of crystal =     1: C1, 1, 1
                      Space group of crystal =    44: Imm2, I 2 -2

             Set iprint > 1 for details on symmetry rotations/translations

                         Centre of mass is constrained
             Set iprint > 1 for details of linear ionic constraints

                         Number of cell constraints= 6
                         Cell constraints are:  0 0 0 0 0 0

                         External pressure/stress (GPa)
                          0.00000   0.00000   0.00000
                                    0.00000   0.00000
                                              0.00000
 
+---------------- MEMORY AND SCRATCH DISK ESTIMATES PER PROCESS --------------+
|                                                     Memory          Disk    |
| Baseline code, static data and system overhead      708.0 MB         0.0 MB |
| BLAS internal memory storage                          0.0 MB         0.0 MB |
| Model and support data                             1412.4 MB         0.0 MB |
| Electronic energy minimisation requirements         110.3 MB         0.0 MB |
| Force calculation requirements                       31.3 MB         0.0 MB |
| Stress calculation requirements                      34.6 MB         0.0 MB |
|                                               ----------------------------- |
| Approx. total storage required per process         2230.6 MB         0.0 MB |
|                                                                             |
| Requirements will fluctuate during execution and may exceed these estimates |
+-----------------------------------------------------------------------------+
Calculating approximate eigenstates for fixed initial Hamiltonian
Cut-off for approx. calculation is   89.988 eV
Improving approx. states at cut-off of  450.000 eV
Resetting cut-off to  900.000 eV
Calculating total energy with cut-off of  900.000 eV.
------------------------------------------------------------------------ <-- SCF
SCF loop      Energy           Fermi           Energy gain       Timer   <-- SCF
                               energy          per atom          (sec)   <-- SCF
------------------------------------------------------------------------ <-- SCF
Initial  -7.87876005E+003  0.00000000E+000                        35.65  <-- SCF
      1  -7.85061342E+003  2.59338871E+000  -3.51832892E+000      46.26  <-- SCF
      2  -7.85062872E+003  2.59308978E+000   1.91206553E-003      55.38  <-- SCF
      3  -7.85904330E+003  2.88920596E+000   1.05182272E+000      67.28  <-- SCF
      4  -7.86052813E+003  2.96313615E+000   1.85604382E-001      80.53  <-- SCF
      5  -7.85970423E+003  3.32103866E+000  -1.02987816E-001      92.35  <-- SCF
      6  -7.85976740E+003  3.37378957E+000   7.89624450E-003     104.16  <-- SCF
      7  -7.85971236E+003  3.41098392E+000  -6.88005773E-003     116.57  <-- SCF
      8  -7.85992238E+003  3.47720770E+000   2.62528581E-002     128.43  <-- SCF
      9  -7.85993050E+003  3.44078744E+000   1.01439422E-003     140.64  <-- SCF
     10  -7.85993299E+003  3.43054064E+000   3.10852504E-004     152.88  <-- SCF
     11  -7.85993298E+003  3.43321465E+000  -7.11585610E-007     165.32  <-- SCF
     12  -7.85993303E+003  3.43066332E+000   6.51763711E-006     177.78  <-- SCF
     13  -7.85993304E+003  3.43065201E+000   1.11336733E-006     188.93  <-- SCF
     14  -7.85993304E+003  3.43046114E+000   3.50315628E-007     199.90  <-- SCF
     15  -7.85993304E+003  3.43057549E+000  -7.66104867E-009     209.27  <-- SCF
     16  -7.85993304E+003  3.43060234E+000  -2.65138835E-009     218.64  <-- SCF
     17  -7.85993304E+003  3.43061286E+000   3.86909737E-009     228.03  <-- SCF
------------------------------------------------------------------------ <-- SCF
 
Final energy, E             =  -7859.933039622     eV
Final free energy (E-TS)    =  -7859.933043189     eV
(energies not corrected for finite basis set)
 
NB est. 0K energy (E-0.5TS)      =  -7859.933041406     eV
 
 
+---------------- MEMORY AND SCRATCH DISK ESTIMATES PER PROCESS --------------+
|                                                     Memory          Disk    |
| Model and support data                              838.1 MB         0.0 MB |
| Electronic energy minimisation requirements         110.3 MB         0.0 MB |
| Geometry minimisation requirements                  130.5 MB         0.0 MB |
|                                               ----------------------------- |
| Approx. total storage required per process         1078.9 MB         0.0 MB |
|                                                                             |
| Requirements will fluctuate during execution and may exceed these estimates |
+-----------------------------------------------------------------------------+
 

 ************************************** Forces **************************************
 *                                                                                  *
 *                           Cartesian components (eV/A)                            *
 * -------------------------------------------------------------------------------- *
 *                         x                    y                    z              *
 *                                                                                  *
 * P               1     -0.00768             -0.00001             -0.00001         *
 * P               2     -0.00768             -0.00001             -0.00002         *
 * P               3     -0.00768             -0.00001             -0.00001         *
 * P               4     -0.00768             -0.00001             -0.00001         *
 * In              1      0.00768              0.00001              0.00001         *
 * In              2      0.00768              0.00001              0.00001         *
 * In              3      0.00768              0.00001              0.00001         *
 * In              4      0.00768              0.00001              0.00001         *
 *                                                                                  *
 ************************************************************************************
 EXP precond LBFGS => estimated nearest neighbor distance :  2.553       A
 EXP precond LBFGS => estimated cutoff distance :  5.107       A

 ************************************** Forces **************************************
 *                                                                                  *
 *                           Cartesian components (eV/A)                            *
 * -------------------------------------------------------------------------------- *
 *                         x                    y                    z              *
 *                                                                                  *
 * P               1     -0.00768             -0.00001             -0.00001         *
 * P               2     -0.00768             -0.00001             -0.00002         *
 * P               3     -0.00768             -0.00001             -0.00001         *
 * P               4     -0.00768             -0.00001             -0.00001         *
 * In              1      0.00768              0.00001              0.00001         *
 * In              2      0.00768              0.00001              0.00001         *
 * In              3      0.00768              0.00001              0.00001         *
 * In              4      0.00768              0.00001              0.00001         *
 *                                                                                  *
 ************************************************************************************
 doing test perturbation to get energy scale for EXP preconditioner

                           -------------------------------
                                     Cell Contents
                           -------------------------------

            xxxxxxxxxxxxxxxxxxxxxxxxxxxxxxxxxxxxxxxxxxxxxxxxxxxxxxxxxxxxxxxxx
            x  Element         Atom        Fractional coordinates of atoms  x
            x                 Number           u          v          w      x
            x---------------------------------------------------------------x
            x  P                 1         0.251072   0.251415   0.753641   x
            x  P                 2         0.752953   0.251416   0.251416   x
            x  P                 3         0.251072   0.753641   0.251415   x
            x  P                 4         0.752953   0.753641   0.753641   x
            x  In                1         0.000000   0.000000   0.000000   x
            x  In                2         0.502077  -0.000000   0.502676   x
            x  In                3         1.003645   0.502676   0.502676   x
            x  In                4         0.502077   0.502676  -0.000000   x
            xxxxxxxxxxxxxxxxxxxxxxxxxxxxxxxxxxxxxxxxxxxxxxxxxxxxxxxxxxxxxxxxx


------------------------------------------------------------------------ <-- SCF
SCF loop      Energy           Fermi           Energy gain       Timer   <-- SCF
                               energy          per atom          (sec)   <-- SCF
------------------------------------------------------------------------ <-- SCF
Initial  -7.85968081E+003  0.00000000E+000                       246.01  <-- SCF
      1  -7.85989300E+003  3.43188726E+000   2.65242849E-002     255.63  <-- SCF
      2  -7.85992448E+003  3.43180276E+000   3.93404065E-003     270.19  <-- SCF
      3  -7.85992466E+003  3.43185520E+000   2.31941295E-005     282.85  <-- SCF
      4  -7.85992488E+003  3.43190977E+000   2.72374892E-005     295.69  <-- SCF
      5  -7.85992492E+003  3.43189032E+000   4.87004297E-006     309.23  <-- SCF
      6  -7.85992492E+003  3.43188573E+000   7.66750458E-007     322.00  <-- SCF
      7  -7.85992493E+003  3.43188862E+000   5.40215784E-008     333.25  <-- SCF
      8  -7.85992493E+003  3.43188738E+000   7.59066981E-009     342.92  <-- SCF
      9  -7.85992493E+003  3.43188642E+000   8.13417252E-010     352.43  <-- SCF
------------------------------------------------------------------------ <-- SCF
 
Final energy, E             =  -7859.924921590     eV
Final free energy (E-TS)    =  -7859.924925345     eV
(energies not corrected for finite basis set)
 
NB est. 0K energy (E-0.5TS)      =  -7859.924923467     eV
 

 ************************************** Forces **************************************
 *                                                                                  *
 *                           Cartesian components (eV/A)                            *
 * -------------------------------------------------------------------------------- *
 *                         x                    y                    z              *
 *                                                                                  *
 * P               1      0.05487             -0.01180             -0.09384         *
 * P               2     -0.07292              0.05948              0.05948         *
 * P               3      0.05487             -0.09384             -0.01180         *
 * P               4     -0.08405             -0.17622             -0.17622         *
 * In              1      0.10429              0.16872              0.16872         *
 * In              2     -0.00087              0.15781             -0.05199         *
 * In              3     -0.05532             -0.05216             -0.05216         *
 * In              4     -0.00087             -0.05199              0.15781         *
 *                                                                                  *
 ************************************************************************************
 EXP precond LBFGS => estimated parameter mu :  2.297       eV/A**2
 LBFGS: finished iteration     0 with enthalpy= -7.85993304E+003 eV
  
 +-----------+-----------------+-----------------+------------+-----+ <-- LBFGS
 | Parameter |      value      |    tolerance    |    units   | OK? | <-- LBFGS
 +-----------+-----------------+-----------------+------------+-----+ <-- LBFGS
 |  dE/ion   |   0.000000E+000 |   2.000000E-005 |         eV | No  | <-- LBFGS
 |  |F|max   |   2.630101E-001 |   1.000000E-003 |       eV/A | No  | <-- LBFGS
 |  |dR|max  |   1.372547E-015 |   1.000000E-003 |          A | No  | <-- LBFGS
 +-----------+-----------------+-----------------+------------+-----+ <-- LBFGS
  

================================================================================
 Starting LBFGS iteration          1 ...
================================================================================
  
 +------------+-------------+-------------+-----------------+ <-- min LBFGS
 |    Step    |   lambda    |   F.delta'  |    enthalpy     | <-- min LBFGS
 +------------+-------------+-------------+-----------------+ <-- min LBFGS
 |  previous  |    0.000000 |    0.004707 |    -7859.933043 | <-- min LBFGS
 +------------+-------------+-------------+-----------------+ <-- min LBFGS
  

--------------------------------------------------------------------------------
 LBFGS: starting iteration         1 with trial guess (lambda=  1.000000)
--------------------------------------------------------------------------------

                           -------------------------------
                                     Cell Contents
                           -------------------------------

            xxxxxxxxxxxxxxxxxxxxxxxxxxxxxxxxxxxxxxxxxxxxxxxxxxxxxxxxxxxxxxxxx
            x  Element         Atom        Fractional coordinates of atoms  x
            x                 Number           u          v          w      x
            x---------------------------------------------------------------x
            x  P                 1         0.249930   0.250000   0.750000   x
            x  P                 2         0.749930   0.250000   0.250000   x
            x  P                 3         0.249930   0.750000   0.250000   x
            x  P                 4         0.749930   0.750000   0.750000   x
            x  In                1         0.000070   0.000000   0.000000   x
            x  In                2         0.500070   0.000000   0.500000   x
            x  In                3         0.000070   0.500000   0.500000   x
            x  In                4         0.500070   0.500000   0.000000   x
            xxxxxxxxxxxxxxxxxxxxxxxxxxxxxxxxxxxxxxxxxxxxxxxxxxxxxxxxxxxxxxxxx


------------------------------------------------------------------------ <-- SCF
SCF loop      Energy           Fermi           Energy gain       Timer   <-- SCF
                               energy          per atom          (sec)   <-- SCF
------------------------------------------------------------------------ <-- SCF
Initial  -7.85966390E+003  0.00000000E+000                       364.12  <-- SCF
      1  -7.85990155E+003  3.43056243E+000   2.97062212E-002     373.74  <-- SCF
      2  -7.85993267E+003  3.43046463E+000   3.89018954E-003     388.18  <-- SCF
      3  -7.85993281E+003  3.43053974E+000   1.81175711E-005     400.82  <-- SCF
      4  -7.85993302E+003  3.43061740E+000   2.55177828E-005     413.56  <-- SCF
      5  -7.85993305E+003  3.43061978E+000   4.12677179E-006     426.94  <-- SCF
      6  -7.85993306E+003  3.43062551E+000   1.00485550E-006     439.62  <-- SCF
      7  -7.85993306E+003  3.43062996E+000   6.67388844E-008     451.13  <-- SCF
      8  -7.85993306E+003  3.43063101E+000   6.62044690E-009     460.57  <-- SCF
      9  -7.85993306E+003  3.43063105E+000   6.90834286E-010     469.91  <-- SCF
------------------------------------------------------------------------ <-- SCF
 
Final energy, E             =  -7859.933054462     eV
Final free energy (E-TS)    =  -7859.933058031     eV
(energies not corrected for finite basis set)
 
NB est. 0K energy (E-0.5TS)      =  -7859.933056247     eV
 

 ************************************** Forces **************************************
 *                                                                                  *
 *                           Cartesian components (eV/A)                            *
 * -------------------------------------------------------------------------------- *
 *                         x                    y                    z              *
 *                                                                                  *
 * P               1     -0.00117              0.00006              0.00004         *
 * P               2     -0.00119              0.00007              0.00007         *
 * P               3     -0.00117              0.00004              0.00006         *
 * P               4     -0.00119              0.00004              0.00004         *
 * In              1      0.00117             -0.00017             -0.00017         *
 * In              2      0.00120             -0.00016              0.00006         *
 * In              3      0.00116              0.00006              0.00006         *
 * In              4      0.00120              0.00006             -0.00016         *
 *                                                                                  *
 ************************************************************************************
  
 +------------+-------------+-------------+-----------------+ <-- min LBFGS
 |    Step    |   lambda    |   F.delta'  |    enthalpy     | <-- min LBFGS
 +------------+-------------+-------------+-----------------+ <-- min LBFGS
 |  previous  |    0.000000 |    0.004707 |    -7859.933043 | <-- min LBFGS
 | trial step |    1.000000 |    0.000725 |    -7859.933058 | <-- min LBFGS
 +------------+-------------+-------------+-----------------+ <-- min LBFGS
  
 LBFGS: finished iteration     1 with enthalpy= -7.85993306E+003 eV
  
 +-----------+-----------------+-----------------+------------+-----+ <-- LBFGS
 | Parameter |      value      |    tolerance    |    units   | OK? | <-- LBFGS
 +-----------+-----------------+-----------------+------------+-----+ <-- LBFGS
 |  dE/ion   |   1.855287E-006 |   2.000000E-005 |         eV | Yes | <-- LBFGS
 |  |F|max   |   1.216556E-003 |   1.000000E-003 |       eV/A | No  | <-- LBFGS
 |  |dR|max  |   4.136487E-004 |   1.000000E-003 |          A | Yes | <-- LBFGS
 +-----------+-----------------+-----------------+------------+-----+ <-- LBFGS
  

================================================================================
 Starting LBFGS iteration          2 ...
================================================================================
  
 +------------+-------------+-------------+-----------------+ <-- min LBFGS
 |    Step    |   lambda    |   F.delta'  |    enthalpy     | <-- min LBFGS
 +------------+-------------+-------------+-----------------+ <-- min LBFGS
 |  previous  |    0.000000 |    0.000728 |    -7859.933058 | <-- min LBFGS
 +------------+-------------+-------------+-----------------+ <-- min LBFGS
  

--------------------------------------------------------------------------------
 LBFGS: starting iteration         2 with trial guess (lambda=  1.000000)
--------------------------------------------------------------------------------

                           -------------------------------
                                     Cell Contents
                           -------------------------------

            xxxxxxxxxxxxxxxxxxxxxxxxxxxxxxxxxxxxxxxxxxxxxxxxxxxxxxxxxxxxxxxxx
            x  Element         Atom        Fractional coordinates of atoms  x
            x                 Number           u          v          w      x
            x---------------------------------------------------------------x
            x  P                 1         0.249917   0.250001   0.750000   x
            x  P                 2         0.749917   0.250001   0.250001   x
            x  P                 3         0.249917   0.750000   0.250001   x
            x  P                 4         0.749917   0.750000   0.750000   x
            x  In                1         0.000083  -0.000003  -0.000003   x
            x  In                2         0.500083  -0.000003   0.500002   x
            x  In                3         0.000082   0.500002   0.500002   x
            x  In                4         0.500083   0.500002  -0.000003   x
            xxxxxxxxxxxxxxxxxxxxxxxxxxxxxxxxxxxxxxxxxxxxxxxxxxxxxxxxxxxxxxxxx


------------------------------------------------------------------------ <-- SCF
SCF loop      Energy           Fermi           Energy gain       Timer   <-- SCF
                               energy          per atom          (sec)   <-- SCF
------------------------------------------------------------------------ <-- SCF
Initial  -7.85993305E+003  0.00000000E+000                       481.70  <-- SCF
      1  -7.85993306E+003  3.43063744E+000   1.26812156E-006     491.81  <-- SCF
      2  -7.85993306E+003  3.43063744E+000   5.16797410E-008     503.85  <-- SCF
      3  -7.85993306E+003  3.43063751E+000   1.05722974E-009     513.26  <-- SCF
      4  -7.85993306E+003  3.43063763E+000   4.99225896E-010     522.60  <-- SCF
------------------------------------------------------------------------ <-- SCF
 
Final energy, E             =  -7859.933054887     eV
Final free energy (E-TS)    =  -7859.933058456     eV
(energies not corrected for finite basis set)
 
NB est. 0K energy (E-0.5TS)      =  -7859.933056671     eV
 

 ************************************** Forces **************************************
 *                                                                                  *
 *                           Cartesian components (eV/A)                            *
 * -------------------------------------------------------------------------------- *
 *                         x                    y                    z              *
 *                                                                                  *
 * P               1      0.00003             -0.00006             -0.00005         *
 * P               2      0.00006             -0.00008             -0.00008         *
 * P               3      0.00003             -0.00005             -0.00006         *
 * P               4      0.00005             -0.00004             -0.00004         *
 * In              1     -0.00001              0.00031              0.00031         *
 * In              2     -0.00008              0.00030             -0.00019         *
 * In              3     -0.00000             -0.00019             -0.00019         *
 * In              4     -0.00008             -0.00019              0.00030         *
 *                                                                                  *
 ************************************************************************************
  
 +------------+-------------+-------------+-----------------+ <-- min LBFGS
 |    Step    |   lambda    |   F.delta'  |    enthalpy     | <-- min LBFGS
 +------------+-------------+-------------+-----------------+ <-- min LBFGS
 |  previous  |    0.000000 |    0.000728 |    -7859.933058 | <-- min LBFGS
 | trial step |    1.000000 |   -0.000056 |    -7859.933058 | <-- min LBFGS
 +------------+-------------+-------------+-----------------+ <-- min LBFGS
  
 LBFGS: finished iteration     2 with enthalpy= -7.85993306E+003 eV
  
 +-----------+-----------------+-----------------+------------+-----+ <-- LBFGS
 | Parameter |      value      |    tolerance    |    units   | OK? | <-- LBFGS
 +-----------+-----------------+-----------------+------------+-----+ <-- LBFGS
 |  dE/ion   |   5.310453E-008 |   2.000000E-005 |         eV | Yes | <-- LBFGS
 |  |F|max   |   4.407959E-004 |   1.000000E-003 |       eV/A | Yes | <-- LBFGS
 |  |dR|max  |   7.986882E-005 |   1.000000E-003 |          A | Yes | <-- LBFGS
 +-----------+-----------------+-----------------+------------+-----+ <-- LBFGS
  
 LBFGS: Geometry optimization completed successfully.

================================================================================
 LBFGS: Final Configuration:
================================================================================

                           -------------------------------
                                     Cell Contents
                           -------------------------------

            xxxxxxxxxxxxxxxxxxxxxxxxxxxxxxxxxxxxxxxxxxxxxxxxxxxxxxxxxxxxxxxxx
            x  Element         Atom        Fractional coordinates of atoms  x
            x                 Number           u          v          w      x
            x---------------------------------------------------------------x
            x  P                 1         0.249917   0.250001   0.750000   x
            x  P                 2         0.749917   0.250001   0.250001   x
            x  P                 3         0.249917   0.750000   0.250001   x
            x  P                 4         0.749917   0.750000   0.750000   x
            x  In                1         0.000083  -0.000003  -0.000003   x
            x  In                2         0.500083  -0.000003   0.500002   x
            x  In                3         0.000082   0.500002   0.500002   x
            x  In                4         0.500083   0.500002  -0.000003   x
            xxxxxxxxxxxxxxxxxxxxxxxxxxxxxxxxxxxxxxxxxxxxxxxxxxxxxxxxxxxxxxxxx


 LBFGS: Final Enthalpy     = -7.85993306E+003 eV
 LBFGS: Final <frequency>  =     253.74273 cm-1

 ************************************** Forces **************************************
 *                                                                                  *
 *                           Cartesian components (eV/A)                            *
 * -------------------------------------------------------------------------------- *
 *                         x                    y                    z              *
 *                                                                                  *
 * P               1      0.00003             -0.00006             -0.00005         *
 * P               2      0.00006             -0.00008             -0.00008         *
 * P               3      0.00003             -0.00005             -0.00006         *
 * P               4      0.00005             -0.00004             -0.00004         *
 * In              1     -0.00001              0.00031              0.00031         *
 * In              2     -0.00008              0.00030             -0.00019         *
 * In              3     -0.00000             -0.00019             -0.00019         *
 * In              4     -0.00008             -0.00019              0.00030         *
 *                                                                                  *
 ************************************************************************************

 ***************** Stress Tensor *****************
 *                                               *
 *          Cartesian components (GPa)           *
 * --------------------------------------------- *
 *             x             y             z     *
 *                                               *
 *  x     -0.095690     -0.000234     -0.000234  *
 *  y     -0.000234     -0.051127     -0.046516  *
 *  z     -0.000234     -0.046516     -0.051127  *
 *                                               *
 *  Pressure:    0.0660                          *
 *                                               *
 *************************************************

 Pseudo atomic calculation performed for P 3s2 3p3

 Converged in 23 iterations to a total energy of -208.0292 eV

 Pseudo atomic calculation performed for In 4d10 5s2 5p1

 Converged in 42 iterations to a total energy of -1747.4501 eV
Charge spilling parameter for spin component 1 = 0.15%

            Orbital Populations       
     Ion    Atom   Orbital             Charge
  -------------------------------------------
      P     1      S                    1.735
      P     1      Px                   1.314
      P     1      Py                   1.314
      P     1      Pz                   1.314
      P     2      S                    1.735
      P     2      Px                   1.314
      P     2      Py                   1.314
      P     2      Pz                   1.314
      P     3      S                    1.735
      P     3      Px                   1.314
      P     3      Py                   1.314
      P     3      Pz                   1.314
      P     4      S                    1.735
      P     4      Px                   1.314
      P     4      Py                   1.314
      P     4      Pz                   1.314
     In     1      Dzz                  1.999
     In     1      Dzy                  1.997
     In     1      Dzx                  1.997
     In     1      Dxx-yy               1.999
     In     1      Dxy                  1.997
     In     1      S                    1.435
     In     1      Px                   0.482
     In     1      Py                   0.482
     In     1      Pz                   0.482
     In     1      S                   -0.548
     In     2      Dzz                  1.999
     In     2      Dzy                  1.997
     In     2      Dzx                  1.997
     In     2      Dxx-yy               1.999
     In     2      Dxy                  1.997
     In     2      S                    1.435
     In     2      Px                   0.482
     In     2      Py                   0.482
     In     2      Pz                   0.482
     In     2      S                   -0.548
     In     3      Dzz                  1.999
     In     3      Dzy                  1.997
     In     3      Dzx                  1.997
     In     3      Dxx-yy               1.999
     In     3      Dxy                  1.997
     In     3      S                    1.435
     In     3      Px                   0.482
     In     3      Py                   0.482
     In     3      Pz                   0.482
     In     3      S                   -0.548
     In     4      Dzz                  1.999
     In     4      Dzy                  1.997
     In     4      Dzx                  1.997
     In     4      Dxx-yy               1.999
     In     4      Dxy                  1.997
     In     4      S                    1.435
     In     4      Px                   0.482
     In     4      Py                   0.482
     In     4      Pz                   0.482
     In     4      S                   -0.548
  -------------------------------------------
                           Total:      72.000
  -------------------------------------------

     Atomic Populations (Mulliken)
     -----------------------------
Species          Ion     s       p       d       f      Total   Charge (e)
==========================================================================
  P               1     1.735   3.942   0.000   0.000   5.676    -0.676
  P               2     1.735   3.942   0.000   0.000   5.676    -0.676
  P               3     1.735   3.942   0.000   0.000   5.676    -0.676
  P               4     1.735   3.942   0.000   0.000   5.676    -0.676
  In              1     0.887   1.447   9.989   0.000  12.324     0.676
  In              2     0.887   1.447   9.989   0.000  12.324     0.676
  In              3     0.887   1.447   9.989   0.000  12.324     0.676
  In              4     0.887   1.447   9.989   0.000  12.324     0.676
==========================================================================

                 Bond                   Population      Length (A)
======================================================================
               P 4 -- In 1                   0.56        2.55398
               P 4 -- In 3                   0.56        2.55399
               P 3 -- In 2                   0.56        2.55399
               P 1 -- In 4                   0.56        2.55399
               P 2 -- In 3                   0.56        2.55400
               P 3 -- In 4                   0.56        2.55401
               P 1 -- In 2                   0.56        2.55401
               P 2 -- In 1                   0.56        2.55402
               P 4 -- In 2                   0.56        2.55456
               P 4 -- In 4                   0.56        2.55456
               P 3 -- In 3                   0.56        2.55458
               P 1 -- In 3                   0.56        2.55458
               P 3 -- In 1                   0.56        2.55458
               P 1 -- In 1                   0.56        2.55458
               P 2 -- In 4                   0.56        2.55459
               P 2 -- In 2                   0.56        2.55459
======================================================================


     Hirshfeld Analysis
     ------------------
Species   Ion     Hirshfeld Charge (e)
======================================
  P        1                -0.24
  P        2                -0.24
  P        3                -0.24
  P        4                -0.24
  In       1                 0.24
  In       2                 0.24
  In       3                 0.24
  In       4                 0.24
======================================

 
 A BibTeX formatted list of references used in this run has been written to 
 Bulk_Elastic_2.bib
 
Initialisation time =     12.96 s
Calculation time    =    614.44 s
Finalisation time   =      0.85 s
Total time          =    628.25 s
Peak Memory Use     = 2587944 kB
 
Overall parallel efficiency rating: Excellent (94%)
 
Data was distributed by:-
k-point (56-way); efficiency rating: Excellent (94%)
