 +-------------------------------------------------+
 |                                                 |
 |      CCC   AA    SSS  TTTTT  EEEEE  PPPP        |
 |     C     A  A  S       T    E      P   P       |
 |     C     AAAA   SS     T    EEE    PPPP        |
 |     C     A  A     S    T    E      P           |
 |      CCC  A  A  SSS     T    EEEEE  P           |
 |                                                 |
 +-------------------------------------------------+
 |                                                 |
 | Welcome to Academic Release CASTEP version 24.1 |
 | Ab Initio Total Energy Program                  |
 |                                                 |
 | Authors:                                        |
 | M. Segall, M. Probert, C. Pickard, P. Hasnip,   |
 | S. Clark, K. Refson, J. R. Yates,               |
 | A. Bartok-Partay, M. Payne                      |
 |                                                 |
 | Contributors:                                   |
 | P. Lindan, P. Haynes, J. White, V. Milman,      |
 | N. Govind, M. Gibson, P. Tulip, V. Cocula,      |
 | B. Montanari, D. Quigley, M. Glover,            |
 | L. Bernasconi, A. Perlov, M. Plummer,           |
 | E. McNellis, J. Meyer, J. Gale, D. Jochym       |
 | J. Aarons, B. Walker, R. Gillen, D. Jones       |
 | T. Green, I. J. Bush, C. J. Armstrong,          |
 | E. J. Higgins, E. L. Brown, M. S. McFly,        |
 | J. Wilkins, B-C. Shih, P. J. P. Byrne,          |
 | R. J. Maurer, J. C. Womack, J. Dziedzic,        |
 | L. LeBlanc, T. K. Stenczel, J. Kermode,         |
 | S. Sturniolo, B. Shi, B. Durham, M. Evans,      |
 | M. J. Smith, A. Tamerus, Z. Hawkhead,           |
 | V. Ravindran, T. Hollins, S. A. Joyce,          |
 | R. T. Strong, A. M. Reilly, S. J. Donaldson     |
 |                                                 |
 | Copyright (c) 2000 - 2023                       |
 |                                                 |
 |     Distributed under license from Cambridge    |
 |     Enterprise for academic use only.           |
 |                                                 |
 | Please cite                                     |
 |                                                 |
 |     "First principles methods using CASTEP"     |
 |                                                 |
 |         Zeitschrift fuer Kristallographie       |
 |           220(5-6) pp. 567-570 (2005)           |
 |                                                 |
 | S. J. Clark, M. D. Segall, C. J. Pickard,       |
 | P. J. Hasnip, M. J. Probert, K. Refson,         |
 | M. C. Payne                                     |
 |                                                 |
 |       in all publications arising from          |
 |              your use of CASTEP                 |
 |                                                 |
 +-------------------------------------------------+
 |                                                 |
 |              http://www.castep.org              |
 |                                                 |
 +-------------------------------------------------+



 Compiled for  GNU 11.2.0 on 04-04-2024 18:39:17
 from code version 6355fd106 Castep241_branch Thu Mar 7 17:56:19 2024 +0000
 Compiler: GNU Fortran 11.2.0; Optimisation: FAST
 Comms   : MPI VERSION : CRAY MPICH version 8.1.23.14 (ANL base 3.4a2)
 MATHLIBS: default (LAPACK version 3.10.1)
 FFT Lib : fftw3 version commercial-fftw-3.3.10-sse2-avx-avx2-avx2_128
 Fundamental constants values: CODATA 2018

 Run started: Wed, 30 Jul 2025 15:25:02 +0100

 Atomic calculation performed for P: 1s2 2s2 2p6 3s2 3p3

 Converged in 47 iterations to an ae energy of -9309.074 eV

   ============================================================                
   | Pseudopotential Report - Date of generation 30-07-2025   |                
   ------------------------------------------------------------                
   | Element: P Ionic charge:  5.00 Level of theory: RSCAN    |                
   | Atomic Solver: Koelling-Harmon                           |                
   |                                                          |                
   |               Reference Electronic Structure             |                
   |         Orbital         Occupation         Energy        |                
   |            3s              2.000           -0.535        |                
   |            3p              3.000           -0.209        |                
   |                                                          |                
   |                 Pseudopotential Definition               |                
   |        Beta     l      e      Rc     scheme   norm       |                
   |          1      0   -0.535   1.807     qc      0         |                
   |          2      0    0.250   1.807     qc      0         |                
   |          3      1   -0.209   1.807     qc      0         |                
   |          4      1    0.250   1.807     qc      0         |                
   |          5      2    0.000   1.807     qc      0         |                
   |          6      2    0.250   1.807     qc      0         |                
   |         loc     3    0.000   1.807     pn      0         |                
   |                                                          |                
   | Augmentation charge Rinner = 1.263                       |                
   | Partial core correction Rc = 1.263                       |                
   ------------------------------------------------------------                
   | "3|1.8|4|4|5|30:31:32"                                   |                
   ------------------------------------------------------------                
   |      Author: Chris J. Pickard, Cambridge University      |                
   ============================================================                
 Warning: otfg_output_psp cannot write out meta-GGA pseudopotentials presently.

 Atomic calculation performed for In:
 1s2 2s2 2p6 3s2 3p6 3d10 4s2 4p6 4d10 5s2 5p1

 Converged in 84 iterations to an ae energy of -160093.328 eV

   ============================================================                
   | Pseudopotential Report - Date of generation 30-07-2025   |                
   ------------------------------------------------------------                
   | Element: In Ionic charge: 13.00 Level of theory: RSCAN   |                
   | Atomic Solver: Koelling-Harmon                           |                
   |                                                          |                
   |               Reference Electronic Structure             |                
   |         Orbital         Occupation         Energy        |                
   |            4d             10.000           -0.711        |                
   |            5s              2.000           -0.313        |                
   |            5p              1.000           -0.095        |                
   |                                                          |                
   |                 Pseudopotential Definition               |                
   |        Beta     l      e      Rc     scheme   norm       |                
   |          1      0   -0.313   2.501     qc      0         |                
   |          2      0    0.250   2.501     qc      0         |                
   |          3      1   -0.095   2.501     qc      0         |                
   |          4      1    0.250   2.501     qc      0         |                
   |          5      2   -0.711   2.207     qc      0         |                
   |          6      2    0.250   2.207     qc      0         |                
   |         loc     3    0.000   2.501     pn      0         |                
   |                                                          |                
   | Augmentation charge Rinner = 1.504                       |                
   | Partial core correction Rc = 1.504                       |                
   ------------------------------------------------------------                
   | "3|2.5|2.5|1.5|7|8|9|50:51:42U2.2U2.2"                   |                
   ------------------------------------------------------------                
   |      Author: Chris J. Pickard, Cambridge University      |                
   ============================================================                
 Warning: otfg_output_psp cannot write out meta-GGA pseudopotentials presently.

 Pseudo atomic calculation performed for P 3s2 3p3

 Converged in 23 iterations to a total energy of -208.0292 eV

 Pseudo atomic calculation performed for In 4d10 5s2 5p1

 Converged in 42 iterations to a total energy of -1747.4501 eV
 Calculation parallelised over 108 processes.
 Data is distributed by G-vector(3-way) and k-point(36-way)
 Each process may use up to 16 threads.

 ************************************ Title ************************************
 

 ***************************** General Parameters ******************************
  
 output verbosity                               : normal  (1)
 write checkpoint data to                       : In_Vacancy_Migration_3->60_Singlepoints_3.check
 type of calculation                            : single point energy
 stress calculation                             : off
 density difference calculation                 : off
 electron localisation func (ELF) calculation   : off
 Hirshfeld analysis                             : on
 polarisation (Berry phase) analysis            : off
 molecular orbital projected DOS                : off
 deltaSCF calculation                           : off
 unlimited duration calculation
 timing information                             : on
 memory usage estimate                          : on
 write extra output files                       : on
 write final potential to formatted file        : off
 write final density to formatted file          : off
 write BibTeX reference list                    : on
 write OTFG pseudopotential files               : on
 write electrostatic potential file             : on
 write bands file                               : on
 checkpoint writing                             : off
  
 output         length unit                     : A
 output           mass unit                     : amu
 output           time unit                     : ps
 output         charge unit                     : e
 output           spin unit                     : hbar/2
 output         energy unit                     : eV
 output          force unit                     : eV/A
 output       velocity unit                     : A/ps
 output       pressure unit                     : GPa
 output     inv_length unit                     : 1/A
 output      frequency unit                     : cm-1
 output force constant unit                     : eV/A**2
 output         volume unit                     : A**3
 output   IR intensity unit                     : (D/A)**2/amu
 output         dipole unit                     : D
 output         efield unit                     : eV/A/e
 output        entropy unit                     : J/mol/K
 output    efield chi2 unit                     : pm/V
  
 wavefunctions paging                           : none
 random number generator seed                   :  152502204
 data distribution                              : optimal for this architecture
 optimization strategy                          : balance speed and memory

 *********************** Exchange-Correlation Parameters ***********************
  
 using functional                               : RSCAN
 relativistic treatment                         : Koelling-Harmon
 DFT+D: Semi-empirical dispersion correction    : off

 ************************* Pseudopotential Parameters **************************
  
 pseudopotential representation                 : reciprocal space
 <beta|phi> representation                      : reciprocal space
 spin-orbit coupling                            : off

 **************************** Basis Set Parameters *****************************
  
 plane wave basis set cut-off                   :   900.0000   eV
 size of standard grid                          :     2.0000
 size of   fine   gmax                          :    30.7390   1/A
 finite basis set correction                    : none

 **************************** Electronic Parameters ****************************
  
 number of  electrons                           :  563.0    
 net charge of system                           :  0.000    
 net spin   of system                           :  1.000    
 number of  up  spins                           :  282.0    
 number of down spins                           :  281.0    
 treating system as spin-polarized
 number of bands                                :        338

 ********************* Electronic Minimization Parameters **********************
  
 Method: Treating system as metallic with density mixing treatment of electrons,
         and number of  SD  steps               :          1
         and number of  CG  steps               :          4
  
 total energy / atom convergence tol.           : 0.1000E-07   eV
 eigen-energy convergence tolerance             : 0.2234E-08   eV
 max force / atom convergence tol.              : ignored
 convergence tolerance window                   :          3   cycles
 max. number of SCF cycles                      :        100
 number of fixed-spin iterations                :         10
 smearing scheme                                : Gaussian
 smearing width                                 : 0.2000       eV
 Fermi energy convergence tolerance             : 0.2721E-13   eV
 periodic dipole correction                     : NONE

 ************************** Density Mixing Parameters **************************
  
 density-mixing scheme                          : Pulay
 max. length of mixing history                  :         20
 charge density mixing amplitude                : 0.5000    
   spin density mixing amplitude                :  2.000    
 cut-off energy for mixing                      :  900.0       eV

 *********************** Population Analysis Parameters ************************
  
 Population analysis with cutoff                :  3.000       A
 Population analysis output                     : summary and pdos components

 *******************************************************************************
  

                           -------------------------------
                                      Unit Cell
                           -------------------------------
        Real Lattice(A)                      Reciprocal Lattice(1/A)
    11.8016820    -0.0000080    -0.0000080        0.532397442   0.000000361   0.000000361
    -0.0000080    11.8016820    -0.0000080        0.000000361   0.532397442   0.000000361
    -0.0000080    -0.0000080    11.8016820        0.000000361   0.000000361   0.532397442

                       Lattice parameters(A)       Cell Angles
                    a =     11.801682          alpha =   90.000078
                    b =     11.801682          beta  =   90.000078
                    c =     11.801682          gamma =   90.000078

                       Current cell volume =          1643.734705       A**3
                                   density =             2.768402   AMU/A**3
                                           =             4.597040     g/cm^3

                           -------------------------------
                                     Cell Contents
                           -------------------------------
                         Total number of ions in cell =   63
                      Total number of species in cell =    2
                        Max number of any one species =   32

            xxxxxxxxxxxxxxxxxxxxxxxxxxxxxxxxxxxxxxxxxxxxxxxxxxxxxxxxxxxx
            x  Element    Atom        Fractional coordinates of atoms  x
            x            Number           u          v          w      x
            x----------------------------------------------------------x
            x  P            1         0.134143   0.134143   0.379839   x 
            x  P            2         0.379837   0.134140   0.134140   x 
            x  P            3         0.134143   0.379839   0.134143   x 
            x  P            4         0.430799   0.430815   0.430815   x 
            x  P            5         0.126002   0.126002   0.876650   x 
            x  P            6         0.376070   0.124896   0.623519   x 
            x  P            7         0.124893   0.376070   0.623519   x 
            x  P            8         0.373433   0.373433   0.872366   x 
            x  P            9         0.124893   0.623519   0.376070   x 
            x  P           10         0.376070   0.623519   0.124895   x 
            x  P           11         0.126002   0.876650   0.126002   x 
            x  P           12         0.373433   0.872367   0.373433   x 
            x  P           13         0.125995   0.624814   0.874542   x 
            x  P           14         0.383218   0.607645   0.607645   x 
            x  P           15         0.125995   0.874542   0.624814   x 
            x  P           16         0.376693   0.873776   0.873776   x 
            x  P           17         0.623519   0.124895   0.376071   x 
            x  P           18         0.876650   0.126002   0.126002   x 
            x  P           19         0.623519   0.376071   0.124895   x 
            x  P           20         0.872366   0.373433   0.373433   x 
            x  P           21         0.624815   0.125994   0.874543   x 
            x  P           22         0.874542   0.125994   0.624814   x 
            x  P           23         0.607651   0.383218   0.607652   x 
            x  P           24         0.873778   0.376693   0.873778   x 
            x  P           25         0.607651   0.607652   0.383218   x 
            x  P           26         0.874542   0.624814   0.125994   x 
            x  P           27         0.624815   0.874543   0.125994   x 
            x  P           28         0.873778   0.873778   0.376693   x 
            x  P           29         0.624285   0.624284   0.872048   x 
            x  P           30         0.872048   0.624285   0.624285   x 
            x  P           31         0.624285   0.872048   0.624284   x 
            x  P           32         0.874645   0.874645   0.874645   x 
            x  In           1        -0.000246  -0.000246  -0.000246   x 
            x  In           2         0.251113   0.003952   0.251114   x 
            x  In           3         0.003952   0.251114   0.251114   x 
            x  In           4         0.251113   0.251114   0.003952   x 
            x  In           5         0.002969   0.002968   0.498478   x 
            x  In           6         0.250571   0.000899   0.749969   x 
            x  In           7         0.000898   0.250571   0.749969   x 
            x  In           8         0.270689   0.270690   0.499342   x 
            x  In           9         0.002969   0.498478   0.002968   x 
            x  In          10         0.270689   0.499342   0.270690   x 
            x  In          11         0.000898   0.749969   0.250571   x 
            x  In          12         0.250571   0.749969   0.000899   x 
            x  In          13        -0.003954   0.499016   0.499016   x 
            x  In          14         0.252519   0.502245   0.745168   x 
            x  In          15        -0.000680   0.748888   0.748888   x 
            x  In          16         0.252519   0.745169   0.502245   x 
            x  In          17         0.498478   0.002967   0.002967   x 
            x  In          18         0.749969   0.000898   0.250571   x 
            x  In          19         0.499341   0.270683   0.270683   x 
            x  In          20         0.749969   0.250571   0.000898   x 
            x  In          21         0.499016  -0.003953   0.499016   x 
            x  In          22         0.748888  -0.000680   0.748888   x 
            x  In          23         0.502247   0.252519   0.745170   x 
            x  In          24         0.745169   0.252520   0.502247   x 
            x  In          25         0.499016   0.499016  -0.003953   x 
            x  In          26         0.745169   0.502247   0.252520   x 
            x  In          27         0.502246   0.745170   0.252519   x 
            x  In          28         0.748888   0.748888  -0.000680   x 
            x  In          29         0.741611   0.495744   0.741610   x 
            x  In          30         0.495746   0.741608   0.741608   x 
            x  In          31         0.741611   0.741610   0.495744   x 
            xxxxxxxxxxxxxxxxxxxxxxxxxxxxxxxxxxxxxxxxxxxxxxxxxxxxxxxxxxxx


                         No user defined ionic velocities

                           -------------------------------
                                   Details of Species
                           -------------------------------

                               Mass of species in AMU
                                    P   30.9737600
                                    In  114.8180000

                          Electric Quadrupole Moment (Barn)
                                    P    1.0000000 No Isotope Defined
                                    In    0.7700000 Isotope115

                          Files used for pseudopotentials:
                                    P 3|1.8|4|4|5|30:31:32
                                    In 3|2.5|2.5|1.5|7|8|9|50:51:42U2.2U2.2

                           -------------------------------
                              k-Points For BZ Sampling
                           -------------------------------
                       MP grid size for SCF calculation is  4  4  4
                            with an offset of   0.125  0.125  0.125
                       Number of kpoints used =            36

                           -------------------------------
                               Symmetry and Constraints
                           -------------------------------

                      Maximum deviation from symmetry =  0.00000         ANG

                      Number of symmetry operations   =           1
                      Number of ionic constraints     =           3
                      Point group of crystal =     1: C1, 1, 1
                      Space group of crystal =   160: R3m, R 3 -2"

             Set iprint > 1 for details on symmetry rotations/translations

                         Centre of mass is constrained
             Set iprint > 1 for details of linear ionic constraints

                         Number of cell constraints= 0
                         Cell constraints are:  1 2 3 4 5 6

                         External pressure/stress (GPa)
                          0.00000   0.00000   0.00000
                                    0.00000   0.00000
                                              0.00000
 
+---------------- MEMORY AND SCRATCH DISK ESTIMATES PER PROCESS --------------+
|                                                     Memory          Disk    |
| Baseline code, static data and system overhead      368.0 MB         0.0 MB |
| BLAS internal memory storage                          0.0 MB         0.0 MB |
| Model and support data                             4296.9 MB         0.0 MB |
| Electronic energy minimisation requirements        1299.4 MB         0.0 MB |
| Force calculation requirements                      127.4 MB         0.0 MB |
|                                               ----------------------------- |
| Approx. total storage required per process         5964.3 MB         0.0 MB |
|                                                                             |
| Requirements will fluctuate during execution and may exceed these estimates |
+-----------------------------------------------------------------------------+
Calculating approximate eigenstates for fixed initial Hamiltonian
Cut-off for approx. calculation is   89.988 eV
Improving approx. states at cut-off of  450.000 eV
Resetting cut-off to  900.000 eV
Calculating total energy with cut-off of  900.000 eV.
------------------------------------------------------------------------ <-- SCF
SCF loop      Energy           Fermi           Energy gain       Timer   <-- SCF
                               energy          per atom          (sec)   <-- SCF
------------------------------------------------------------------------ <-- SCF
Initial  -6.12921175E+004  0.00000000E+000                       428.00  <-- SCF
      1  -6.10532000E+004  2.13664854E+000  -3.79234218E+000     868.22  <-- SCF
      2  -6.10535664E+004  2.13634106E+000   5.81620121E-003    1179.97  <-- SCF
      3  -6.11176468E+004  2.35081990E+000   1.01714932E+000    1528.24  <-- SCF
      4  -6.11291663E+004  2.41967956E+000   1.82848687E-001    2007.53  <-- SCF
      5  -6.11353898E+004  2.52920159E+000   9.87862269E-002    2348.66  <-- SCF
      6  -6.11235029E+004  2.65647764E+000  -1.88681006E-001    2696.28  <-- SCF
      7  -6.11219179E+004  2.69851882E+000  -2.51582197E-002    3040.64  <-- SCF
      8  -6.11223612E+004  2.73415945E+000   7.03614383E-003    3401.08  <-- SCF
      9  -6.11230939E+004  2.75157067E+000   1.16306487E-002    3751.32  <-- SCF
     10  -6.11234228E+004  2.73960413E+000   5.21998198E-003    4094.75  <-- SCF
     11  -6.11234783E+004  2.73910373E+000   8.80385775E-004    4441.02  <-- SCF
     12  -6.11234998E+004  2.73730509E+000   3.41739155E-004    4790.08  <-- SCF
     13  -6.11235024E+004  2.73660548E+000   4.21128690E-005    5135.66  <-- SCF
     14  -6.11235026E+004  2.73614923E+000   2.77230195E-006    5494.28  <-- SCF
     15  -6.11235030E+004  2.73560221E+000   5.55191084E-006    5849.54  <-- SCF
     16  -6.11235031E+004  2.73557382E+000   2.13236532E-006    6185.14  <-- SCF
     17  -6.11235033E+004  2.73557114E+000   3.13488699E-006    6526.43  <-- SCF
     18  -6.11235038E+004  2.73562819E+000   8.02220470E-006    6887.28  <-- SCF
     19  -6.11235040E+004  2.73561418E+000   2.51186308E-006    7252.39  <-- SCF
     20  -6.11235041E+004  2.73547231E+000   2.73576908E-006    7611.60  <-- SCF
     21  -6.11235042E+004  2.73552638E+000   9.46444850E-007    7968.59  <-- SCF
     22  -6.11235042E+004  2.73550284E+000   4.11393617E-007    8313.66  <-- SCF
     23  -6.11235042E+004  2.73544665E+000   3.58236153E-008    8636.83  <-- SCF
     24  -6.11235042E+004  2.73542657E+000   3.12066243E-008    8940.76  <-- SCF
     25  -6.11235042E+004  2.73540582E+000   1.46050199E-008    9189.41  <-- SCF
     26  -6.11235042E+004  2.73538885E+000  -2.41995852E-007    9433.09  <-- SCF
     27  -6.11235043E+004  2.73538646E+000   2.11840042E-006    9681.09  <-- SCF
     28  -6.11235037E+004  2.73538515E+000  -1.06586867E-005    9930.67  <-- SCF
     29  -6.11235042E+004  2.73538384E+000   9.09383274E-006   10172.35  <-- SCF
     30  -6.11235042E+004  2.73538485E+000  -5.50358446E-007   10412.54  <-- SCF
     31  -6.11235042E+004  2.73538595E+000   4.10942839E-008   10655.55  <-- SCF
     32  -6.11235042E+004  2.73538614E+000   2.88266328E-008   10894.65  <-- SCF
     33  -6.11235042E+004  2.73538594E+000   8.10634880E-009   11136.70  <-- SCF
     34  -6.11235042E+004  2.73538609E+000  -7.64266589E-008   11381.13  <-- SCF
     35  -6.11235042E+004  2.73538608E+000   2.74984573E-010   11621.78  <-- SCF
     36  -6.11235042E+004  2.73538609E+000  -4.79023127E-009   11875.97  <-- SCF
     37  -6.11235042E+004  2.73538609E+000  -3.92102467E-008   12114.66  <-- SCF
     38  -6.11235042E+004  2.73538609E+000   1.74179157E-008   12364.26  <-- SCF
     39  -6.11235042E+004  2.73538607E+000   5.20824710E-008   12604.16  <-- SCF
     40  -6.11235042E+004  2.73538606E+000   3.88845864E-008   12847.63  <-- SCF
     41  -6.11235042E+004  2.73538605E+000  -1.24882280E-009   13083.27  <-- SCF
     42  -6.11235042E+004  2.73538604E+000  -1.21346764E-009   13326.76  <-- SCF
     43  -6.11235042E+004  2.73538601E+000   4.54023101E-008   13584.10  <-- SCF
     44  -6.11235042E+004  2.73538598E+000   6.62483013E-008   13823.72  <-- SCF
     45  -6.11235042E+004  2.73538597E+000   3.51897758E-008   14064.74  <-- SCF
     46  -6.11235042E+004  2.73538597E+000   4.40419221E-008   14307.72  <-- SCF
     47  -6.11235042E+004  2.73538597E+000   1.20070050E-008   14549.52  <-- SCF
     48  -6.11235042E+004  2.73538596E+000   3.83583838E-009   14787.03  <-- SCF
     49  -6.11235042E+004  2.73538597E+000  -9.29836764E-008   15041.45  <-- SCF
     50  -6.11235042E+004  2.73538596E+000  -1.83734871E-008   15281.25  <-- SCF
     51  -6.11235042E+004  2.73538597E+000  -7.03901582E-009   15521.42  <-- SCF
     52  -6.11235042E+004  2.73538597E+000  -3.44909222E-009   15761.84  <-- SCF
     53  -6.11235042E+004  2.73538597E+000   6.14001269E-009   15998.80  <-- SCF
     54  -6.11235042E+004  2.73538597E+000  -5.37732333E-009   16238.09  <-- SCF
     55  -6.11235042E+004  2.73538597E+000   1.25911508E-008   16472.10  <-- SCF
     56  -6.11235042E+004  2.73538596E+000  -2.70686957E-008   16701.64  <-- SCF
     57  -6.11235042E+004  2.73538596E+000  -3.78439662E-008   16936.92  <-- SCF
     58  -6.11235042E+004  2.73538595E+000  -4.38093637E-008   17177.69  <-- SCF
     59  -6.11235042E+004  2.73538594E+000  -2.47861273E-008   17424.54  <-- SCF
     60  -6.11235042E+004  2.73538594E+000  -1.97431067E-008   17666.23  <-- SCF
     61  -6.11235042E+004  2.73538597E+000   1.33545276E-007   17905.03  <-- SCF
     62  -6.11235042E+004  2.73538596E+000   6.81509981E-009   18135.66  <-- SCF
     63  -6.11235042E+004  2.73538597E+000   5.83562440E-008   18375.24  <-- SCF
     64  -6.11235042E+004  2.73538598E+000   8.83213130E-008   18619.85  <-- SCF
     65  -6.11235042E+004  2.73538597E+000  -3.47252483E-008   18854.05  <-- SCF
     66  -6.11235042E+004  2.73538597E+000  -1.67891831E-008   19091.21  <-- SCF
     67  -6.11235042E+004  2.73538596E+000  -3.47857449E-008   19332.03  <-- SCF
     68  -6.11235042E+004  2.73538597E+000   1.39898402E-008   19560.46  <-- SCF
     69  -6.11235042E+004  2.73538597E+000   1.33487333E-008   19798.29  <-- SCF
     70  -6.11235042E+004  2.73538598E+000  -1.07463971E-008   20032.15  <-- SCF
     71  -6.11235042E+004  2.73538599E+000  -9.68652801E-009   20276.06  <-- SCF
     72  -6.11235042E+004  2.73538598E+000  -3.36482909E-009   20515.34  <-- SCF
     73  -6.11235042E+004  2.73538598E+000  -4.57868956E-009   20748.42  <-- SCF
     74  -6.11235042E+004  2.73538598E+000   1.35547753E-009   20987.23  <-- SCF
     75  -6.11235042E+004  2.73538598E+000   8.71111845E-010   21224.13  <-- SCF
     76  -6.11235042E+004  2.73538598E+000   2.33756529E-009   21460.65  <-- SCF
     77  -6.11235042E+004  2.73538598E+000  -7.60332345E-010   21694.98  <-- SCF
     78  -6.11235042E+004  2.73538598E+000   3.08375557E-010   21924.51  <-- SCF
     79  -6.11235042E+004  2.73538599E+000  -2.93349614E-009   22162.37  <-- SCF
     80  -6.11235042E+004  2.73538599E+000  -3.00126020E-010   22408.17  <-- SCF
     81  -6.11235042E+004  2.73538599E+000  -6.99875022E-009   22645.71  <-- SCF
     82  -6.11235042E+004  2.73538598E+000  -6.62143211E-009   22894.83  <-- SCF
     83  -6.11235042E+004  2.73538598E+000  -1.70686853E-010   23128.44  <-- SCF
     84  -6.11235042E+004  2.73538598E+000  -2.72588279E-009   23357.31  <-- SCF
     85  -6.11235042E+004  2.73538597E+000   1.09390827E-008   23592.99  <-- SCF
     86  -6.11235042E+004  2.73538597E+000  -5.08132208E-009   23839.61  <-- SCF
     87  -6.11235042E+004  2.73538597E+000  -3.46794830E-009   24074.84  <-- SCF
     88  -6.11235042E+004  2.73538602E+000   3.99542764E-008   24316.79  <-- SCF
     89  -6.11235042E+004  2.73538602E+000  -1.16120093E-008   24558.64  <-- SCF
     90  -6.11235042E+004  2.73538602E+000   2.21107239E-009   24799.03  <-- SCF
     91  -6.11235042E+004  2.73538600E+000  -1.55576451E-008   25035.99  <-- SCF
     92  -6.11235042E+004  2.73538599E+000   1.37582639E-008   25272.04  <-- SCF
     93  -6.11235042E+004  2.73538599E+000   5.98523565E-009   25502.14  <-- SCF
     94  -6.11235042E+004  2.73538598E+000   1.97130548E-008   25729.43  <-- SCF
     95  -6.11235042E+004  2.73538598E+000   8.03445998E-009   25967.51  <-- SCF
     96  -6.11235042E+004  2.73538598E+000   3.03504402E-009   26195.23  <-- SCF
     97  -6.11235042E+004  2.73538599E+000   1.58567890E-009   26427.61  <-- SCF
     98  -6.11235042E+004  2.73538600E+000  -1.83846829E-009   26659.23  <-- SCF
     99  -6.11235042E+004  2.73538600E+000  -3.50212496E-009   26892.01  <-- SCF
    100  -6.11235042E+004  2.73538599E+000  -1.15894213E-008   27121.47  <-- SCF
------------------------------------------------------------------------ <-- SCF
 *Warning* max. SCF cycles performed but system has not reached the groundstate.
  
Current total energy, E     =  -61123.24543392     eV
Current free energy (E-TS)  =  -61123.50422857     eV
(energies not corrected for finite basis set)
 
NB est. 0K energy (E-0.5TS)      =  -61123.37483125     eV
 
  ****************************************************************************
  Warning: electronic minimisation did not converge when finding ground state.
  ****************************************************************************
  Writing checkpoint file...
 
Overall parallel efficiency rating: Terrible (29%)
 
Data was distributed by:-
G-vector (3-way); efficiency rating: Terrible (31%)
k-point (36-way); efficiency rating: Good (78%)
