 +-------------------------------------------------+
 |                                                 |
 |      CCC   AA    SSS  TTTTT  EEEEE  PPPP        |
 |     C     A  A  S       T    E      P   P       |
 |     C     AAAA   SS     T    EEE    PPPP        |
 |     C     A  A     S    T    E      P           |
 |      CCC  A  A  SSS     T    EEEEE  P           |
 |                                                 |
 +-------------------------------------------------+
 |                                                 |
 | Welcome to Academic Release CASTEP version 24.1 |
 | Ab Initio Total Energy Program                  |
 |                                                 |
 | Authors:                                        |
 | M. Segall, M. Probert, C. Pickard, P. Hasnip,   |
 | S. Clark, K. Refson, J. R. Yates,               |
 | A. Bartok-Partay, M. Payne                      |
 |                                                 |
 | Contributors:                                   |
 | P. Lindan, P. Haynes, J. White, V. Milman,      |
 | N. Govind, M. Gibson, P. Tulip, V. Cocula,      |
 | B. Montanari, D. Quigley, M. Glover,            |
 | L. Bernasconi, A. Perlov, M. Plummer,           |
 | E. McNellis, J. Meyer, J. Gale, D. Jochym       |
 | J. Aarons, B. Walker, R. Gillen, D. Jones       |
 | T. Green, I. J. Bush, C. J. Armstrong,          |
 | E. J. Higgins, E. L. Brown, M. S. McFly,        |
 | J. Wilkins, B-C. Shih, P. J. P. Byrne,          |
 | R. J. Maurer, J. C. Womack, J. Dziedzic,        |
 | L. LeBlanc, T. K. Stenczel, J. Kermode,         |
 | S. Sturniolo, B. Shi, B. Durham, M. Evans,      |
 | M. J. Smith, A. Tamerus, Z. Hawkhead,           |
 | V. Ravindran, T. Hollins, S. A. Joyce,          |
 | R. T. Strong, A. M. Reilly, S. J. Donaldson     |
 |                                                 |
 | Copyright (c) 2000 - 2023                       |
 |                                                 |
 |     Distributed under license from Cambridge    |
 |     Enterprise for academic use only.           |
 |                                                 |
 | Please cite                                     |
 |                                                 |
 |     "First principles methods using CASTEP"     |
 |                                                 |
 |         Zeitschrift fuer Kristallographie       |
 |           220(5-6) pp. 567-570 (2005)           |
 |                                                 |
 | S. J. Clark, M. D. Segall, C. J. Pickard,       |
 | P. J. Hasnip, M. J. Probert, K. Refson,         |
 | M. C. Payne                                     |
 |                                                 |
 |       in all publications arising from          |
 |              your use of CASTEP                 |
 |                                                 |
 +-------------------------------------------------+
 |                                                 |
 |              http://www.castep.org              |
 |                                                 |
 +-------------------------------------------------+



 Compiled for  GNU 11.2.0 on 04-04-2024 18:39:17
 from code version 6355fd106 Castep241_branch Thu Mar 7 17:56:19 2024 +0000
 Compiler: GNU Fortran 11.2.0; Optimisation: FAST
 Comms   : MPI VERSION : CRAY MPICH version 8.1.23.14 (ANL base 3.4a2)
 MATHLIBS: default (LAPACK version 3.10.1)
 FFT Lib : fftw3 version commercial-fftw-3.3.10-sse2-avx-avx2-avx2_128
 Fundamental constants values: CODATA 2018

 Run started: Tue, 29 Apr 2025 15:57:20 +0100

 Atomic calculation performed for P: 1s2 2s2 2p6 3s2 3p3

 Converged in 47 iterations to an ae energy of -9309.074 eV

   ============================================================                
   | Pseudopotential Report - Date of generation 29-04-2025   |                
   ------------------------------------------------------------                
   | Element: P Ionic charge:  5.00 Level of theory: RSCAN    |                
   | Atomic Solver: Koelling-Harmon                           |                
   |                                                          |                
   |               Reference Electronic Structure             |                
   |         Orbital         Occupation         Energy        |                
   |            3s              2.000           -0.535        |                
   |            3p              3.000           -0.209        |                
   |                                                          |                
   |                 Pseudopotential Definition               |                
   |        Beta     l      e      Rc     scheme   norm       |                
   |          1      0   -0.535   1.807     qc      0         |                
   |          2      0    0.250   1.807     qc      0         |                
   |          3      1   -0.209   1.807     qc      0         |                
   |          4      1    0.250   1.807     qc      0         |                
   |          5      2    0.000   1.807     qc      0         |                
   |          6      2    0.250   1.807     qc      0         |                
   |         loc     3    0.000   1.807     pn      0         |                
   |                                                          |                
   | Augmentation charge Rinner = 1.263                       |                
   | Partial core correction Rc = 1.263                       |                
   ------------------------------------------------------------                
   | "3|1.8|4|4|5|30:31:32"                                   |                
   ------------------------------------------------------------                
   |      Author: Chris J. Pickard, Cambridge University      |                
   ============================================================                
 Warning: otfg_output_psp cannot write out meta-GGA pseudopotentials presently.

 Atomic calculation performed for In:
 1s2 2s2 2p6 3s2 3p6 3d10 4s2 4p6 4d10 5s2 5p1

 Converged in 84 iterations to an ae energy of -160093.328 eV

   ============================================================                
   | Pseudopotential Report - Date of generation 29-04-2025   |                
   ------------------------------------------------------------                
   | Element: In Ionic charge: 13.00 Level of theory: RSCAN   |                
   | Atomic Solver: Koelling-Harmon                           |                
   |                                                          |                
   |               Reference Electronic Structure             |                
   |         Orbital         Occupation         Energy        |                
   |            4d             10.000           -0.711        |                
   |            5s              2.000           -0.313        |                
   |            5p              1.000           -0.095        |                
   |                                                          |                
   |                 Pseudopotential Definition               |                
   |        Beta     l      e      Rc     scheme   norm       |                
   |          1      0   -0.313   2.501     qc      0         |                
   |          2      0    0.250   2.501     qc      0         |                
   |          3      1   -0.095   2.501     qc      0         |                
   |          4      1    0.250   2.501     qc      0         |                
   |          5      2   -0.711   2.207     qc      0         |                
   |          6      2    0.250   2.207     qc      0         |                
   |         loc     3    0.000   2.501     pn      0         |                
   |                                                          |                
   | Augmentation charge Rinner = 1.504                       |                
   | Partial core correction Rc = 1.504                       |                
   ------------------------------------------------------------                
   | "3|2.5|2.5|1.5|7|8|9|50:51:42U2.2U2.2"                   |                
   ------------------------------------------------------------                
   |      Author: Chris J. Pickard, Cambridge University      |                
   ============================================================                
 Warning: otfg_output_psp cannot write out meta-GGA pseudopotentials presently.

 Pseudo atomic calculation performed for P 3s2 3p3

 Converged in 23 iterations to a total energy of -208.0292 eV

 Pseudo atomic calculation performed for In 4d10 5s2 5p1

 Converged in 42 iterations to a total energy of -1747.4501 eV
 Calculation parallelised over 108 processes.
 Data is distributed by G-vector(3-way) and k-point(36-way)
 Each process may use up to 16 threads.

 ************************************ Title ************************************
 

 ***************************** General Parameters ******************************
  
 output verbosity                               : normal  (1)
 write checkpoint data to                       : In_Vacancy_Migration_3->60_Singlepoints_3.check
 type of calculation                            : single point energy
 stress calculation                             : off
 density difference calculation                 : off
 electron localisation func (ELF) calculation   : off
 Hirshfeld analysis                             : on
 polarisation (Berry phase) analysis            : off
 molecular orbital projected DOS                : off
 deltaSCF calculation                           : off
 unlimited duration calculation
 timing information                             : on
 memory usage estimate                          : on
 write extra output files                       : on
 write final potential to formatted file        : off
 write final density to formatted file          : off
 write BibTeX reference list                    : on
 write OTFG pseudopotential files               : on
 write electrostatic potential file             : on
 write bands file                               : on
 checkpoint writing                             : off
  
 output         length unit                     : A
 output           mass unit                     : amu
 output           time unit                     : ps
 output         charge unit                     : e
 output           spin unit                     : hbar/2
 output         energy unit                     : eV
 output          force unit                     : eV/A
 output       velocity unit                     : A/ps
 output       pressure unit                     : GPa
 output     inv_length unit                     : 1/A
 output      frequency unit                     : cm-1
 output force constant unit                     : eV/A**2
 output         volume unit                     : A**3
 output   IR intensity unit                     : (D/A)**2/amu
 output         dipole unit                     : D
 output         efield unit                     : eV/A/e
 output        entropy unit                     : J/mol/K
 output    efield chi2 unit                     : pm/V
  
 wavefunctions paging                           : none
 random number generator seed                   :  155720496
 data distribution                              : optimal for this architecture
 optimization strategy                          : balance speed and memory

 *********************** Exchange-Correlation Parameters ***********************
  
 using functional                               : RSCAN
 relativistic treatment                         : Koelling-Harmon
 DFT+D: Semi-empirical dispersion correction    : off

 ************************* Pseudopotential Parameters **************************
  
 pseudopotential representation                 : reciprocal space
 <beta|phi> representation                      : reciprocal space
 spin-orbit coupling                            : off

 **************************** Basis Set Parameters *****************************
  
 plane wave basis set cut-off                   :   900.0000   eV
 size of standard grid                          :     2.0000
 size of   fine   gmax                          :    30.7390   1/A
 finite basis set correction                    : none

 **************************** Electronic Parameters ****************************
  
 number of  electrons                           :  563.0    
 net charge of system                           :  0.000    
 net spin   of system                           :  1.000    
 number of  up  spins                           :  282.0    
 number of down spins                           :  281.0    
 treating system as spin-polarized
 number of bands                                :        338

 ********************* Electronic Minimization Parameters **********************
  
 Method: Treating system as metallic with density mixing treatment of electrons,
         and number of  SD  steps               :          1
         and number of  CG  steps               :          4
  
 total energy / atom convergence tol.           : 0.1000E-07   eV
 eigen-energy convergence tolerance             : 0.2234E-08   eV
 max force / atom convergence tol.              : ignored
 convergence tolerance window                   :          3   cycles
 max. number of SCF cycles                      :        100
 number of fixed-spin iterations                :         10
 smearing scheme                                : Gaussian
 smearing width                                 : 0.2000       eV
 Fermi energy convergence tolerance             : 0.2721E-13   eV
 periodic dipole correction                     : NONE

 ************************** Density Mixing Parameters **************************
  
 density-mixing scheme                          : Pulay
 max. length of mixing history                  :         20
 charge density mixing amplitude                : 0.5000    
   spin density mixing amplitude                :  2.000    
 cut-off energy for mixing                      :  900.0       eV

 *********************** Population Analysis Parameters ************************
  
 Population analysis with cutoff                :  3.000       A
 Population analysis output                     : summary and pdos components

 *******************************************************************************
  

                           -------------------------------
                                      Unit Cell
                           -------------------------------
        Real Lattice(A)                      Reciprocal Lattice(1/A)
    11.8016820    -0.0000080    -0.0000080        0.532397442   0.000000361   0.000000361
    -0.0000080    11.8016820    -0.0000080        0.000000361   0.532397442   0.000000361
    -0.0000080    -0.0000080    11.8016820        0.000000361   0.000000361   0.532397442

                       Lattice parameters(A)       Cell Angles
                    a =     11.801682          alpha =   90.000078
                    b =     11.801682          beta  =   90.000078
                    c =     11.801682          gamma =   90.000078

                       Current cell volume =          1643.734705       A**3
                                   density =             2.768402   AMU/A**3
                                           =             4.597040     g/cm^3

                           -------------------------------
                                     Cell Contents
                           -------------------------------
                         Total number of ions in cell =   63
                      Total number of species in cell =    2
                        Max number of any one species =   32

            xxxxxxxxxxxxxxxxxxxxxxxxxxxxxxxxxxxxxxxxxxxxxxxxxxxxxxxxxxxx
            x  Element    Atom        Fractional coordinates of atoms  x
            x            Number           u          v          w      x
            x----------------------------------------------------------x
            x  P            1         0.134099   0.134099   0.379688   x 
            x  P            2         0.379688   0.134099   0.134099   x 
            x  P            3         0.134099   0.379688   0.134099   x 
            x  P            4         0.430667   0.430668   0.430668   x 
            x  P            5         0.125942   0.125942   0.876526   x 
            x  P            6         0.376032   0.125055   0.623430   x 
            x  P            7         0.125055   0.376032   0.623430   x 
            x  P            8         0.373469   0.373469   0.872494   x 
            x  P            9         0.125055   0.623430   0.376032   x 
            x  P           10         0.376032   0.623430   0.125055   x 
            x  P           11         0.125942   0.876526   0.125942   x 
            x  P           12         0.373469   0.872494   0.373469   x 
            x  P           13         0.126109   0.624717   0.874453   x 
            x  P           14         0.383754   0.607508   0.607508   x 
            x  P           15         0.126109   0.874453   0.624717   x 
            x  P           16         0.376642   0.873835   0.873835   x 
            x  P           17         0.623430   0.125055   0.376032   x 
            x  P           18         0.876526   0.125942   0.125942   x 
            x  P           19         0.623430   0.376032   0.125055   x 
            x  P           20         0.872494   0.373469   0.373469   x 
            x  P           21         0.624717   0.126109   0.874453   x 
            x  P           22         0.874453   0.126109   0.624717   x 
            x  P           23         0.607508   0.383755   0.607508   x 
            x  P           24         0.873836   0.376642   0.873836   x 
            x  P           25         0.607508   0.607508   0.383755   x 
            x  P           26         0.874453   0.624717   0.126109   x 
            x  P           27         0.624717   0.874453   0.126109   x 
            x  P           28         0.873836   0.873836   0.376642   x 
            x  P           29         0.624342   0.624342   0.872189   x 
            x  P           30         0.872189   0.624342   0.624342   x 
            x  P           31         0.624342   0.872189   0.624342   x 
            x  P           32         0.874677   0.874677   0.874677   x 
            x  In           1        -0.000242  -0.000242  -0.000242   x 
            x  In           2         0.251035   0.003816   0.251035   x 
            x  In           3         0.003816   0.251035   0.251035   x 
            x  In           4         0.251035   0.251035   0.003816   x 
            x  In           5         0.003009   0.003008   0.498513   x 
            x  In           6         0.250581   0.000894   0.749849   x 
            x  In           7         0.000894   0.250581   0.749849   x 
            x  In           8         0.270596   0.270596   0.498932   x 
            x  In           9         0.003009   0.498513   0.003008   x 
            x  In          10         0.270596   0.498932   0.270596   x 
            x  In          11         0.000894   0.749849   0.250581   x 
            x  In          12         0.250581   0.749849   0.000894   x 
            x  In          13        -0.003751   0.499049   0.499049   x 
            x  In          14         0.252771   0.502229   0.744998   x 
            x  In          15        -0.000572   0.748965   0.748965   x 
            x  In          16         0.252771   0.744998   0.502229   x 
            x  In          17         0.498513   0.003008   0.003008   x 
            x  In          18         0.749849   0.000894   0.250581   x 
            x  In          19         0.498932   0.270595   0.270595   x 
            x  In          20         0.749849   0.250581   0.000894   x 
            x  In          21         0.499049  -0.003751   0.499049   x 
            x  In          22         0.748965  -0.000572   0.748965   x 
            x  In          23         0.502229   0.252771   0.744998   x 
            x  In          24         0.744998   0.252771   0.502229   x 
            x  In          25         0.499049   0.499049  -0.003751   x 
            x  In          26         0.744998   0.502229   0.252771   x 
            x  In          27         0.502229   0.744998   0.252771   x 
            x  In          28         0.748965   0.748965  -0.000572   x 
            x  In          29         0.741700   0.495794   0.741700   x 
            x  In          30         0.495794   0.741699   0.741699   x 
            x  In          31         0.741700   0.741700   0.495794   x 
            xxxxxxxxxxxxxxxxxxxxxxxxxxxxxxxxxxxxxxxxxxxxxxxxxxxxxxxxxxxx


                         No user defined ionic velocities

                           -------------------------------
                                   Details of Species
                           -------------------------------

                               Mass of species in AMU
                                    P   30.9737600
                                    In  114.8180000

                          Electric Quadrupole Moment (Barn)
                                    P    1.0000000 No Isotope Defined
                                    In    0.7700000 Isotope115

                          Files used for pseudopotentials:
                                    P 3|1.8|4|4|5|30:31:32
                                    In 3|2.5|2.5|1.5|7|8|9|50:51:42U2.2U2.2

                           -------------------------------
                              k-Points For BZ Sampling
                           -------------------------------
                       MP grid size for SCF calculation is  4  4  4
                            with an offset of   0.125  0.125  0.125
                       Number of kpoints used =            36

                           -------------------------------
                               Symmetry and Constraints
                           -------------------------------

                      Maximum deviation from symmetry =  0.00000         ANG

                      Number of symmetry operations   =           1
                      Number of ionic constraints     =           3
                      Point group of crystal =     1: C1, 1, 1
                      Space group of crystal =   160: R3m, R 3 -2"

             Set iprint > 1 for details on symmetry rotations/translations

                         Centre of mass is constrained
             Set iprint > 1 for details of linear ionic constraints

                         Number of cell constraints= 0
                         Cell constraints are:  1 2 3 4 5 6

                         External pressure/stress (GPa)
                          0.00000   0.00000   0.00000
                                    0.00000   0.00000
                                              0.00000
 
+---------------- MEMORY AND SCRATCH DISK ESTIMATES PER PROCESS --------------+
|                                                     Memory          Disk    |
| Baseline code, static data and system overhead      368.0 MB         0.0 MB |
| BLAS internal memory storage                          0.0 MB         0.0 MB |
| Model and support data                             4296.9 MB         0.0 MB |
| Electronic energy minimisation requirements        1299.4 MB         0.0 MB |
| Force calculation requirements                      127.4 MB         0.0 MB |
|                                               ----------------------------- |
| Approx. total storage required per process         5964.3 MB         0.0 MB |
|                                                                             |
| Requirements will fluctuate during execution and may exceed these estimates |
+-----------------------------------------------------------------------------+
Calculating approximate eigenstates for fixed initial Hamiltonian
Cut-off for approx. calculation is   89.988 eV
Improving approx. states at cut-off of  450.000 eV
Resetting cut-off to  900.000 eV
Calculating total energy with cut-off of  900.000 eV.
------------------------------------------------------------------------ <-- SCF
SCF loop      Energy           Fermi           Energy gain       Timer   <-- SCF
                               energy          per atom          (sec)   <-- SCF
------------------------------------------------------------------------ <-- SCF
Initial  -6.12919222E+004  0.00000000E+000                       430.61  <-- SCF
      1  -6.10532000E+004  2.13384924E+000  -3.78924038E+000     875.34  <-- SCF
      2  -6.10535801E+004  2.13353597E+000   6.03350381E-003    1174.18  <-- SCF
      3  -6.11176554E+004  2.34938318E+000   1.01706779E+000    1517.88  <-- SCF
      4  -6.11291560E+004  2.41826195E+000   1.82549027E-001    1998.26  <-- SCF
      5  -6.11354263E+004  2.52687877E+000   9.95289753E-002    2335.47  <-- SCF
      6  -6.11235047E+004  2.65479039E+000  -1.89231909E-001    2674.89  <-- SCF
      7  -6.11219176E+004  2.69689779E+000  -2.51921694E-002    3018.96  <-- SCF
      8  -6.11223613E+004  2.73299756E+000   7.04348305E-003    3374.17  <-- SCF
      9  -6.11230922E+004  2.75019263E+000   1.16014844E-002    3723.92  <-- SCF
     10  -6.11234235E+004  2.73807697E+000   5.25835267E-003    4069.94  <-- SCF
     11  -6.11234790E+004  2.73763022E+000   8.80260628E-004    4422.32  <-- SCF
     12  -6.11235004E+004  2.73586376E+000   3.41093164E-004    4764.09  <-- SCF
     13  -6.11235032E+004  2.73518952E+000   4.37173063E-005    5120.05  <-- SCF
     14  -6.11235034E+004  2.73472330E+000   3.09755999E-006    5484.53  <-- SCF
     15  -6.11235038E+004  2.73418082E+000   6.03353159E-006    5835.54  <-- SCF
     16  -6.11235039E+004  2.73414295E+000   2.48731226E-006    6163.60  <-- SCF
     17  -6.11235041E+004  2.73414370E+000   3.46150227E-006    6498.79  <-- SCF
     18  -6.11235047E+004  2.73424017E+000   8.57763426E-006    6866.21  <-- SCF
     19  -6.11235048E+004  2.73422687E+000   2.47656253E-006    7224.11  <-- SCF
     20  -6.11235050E+004  2.73407769E+000   2.56497223E-006    7575.63  <-- SCF
     21  -6.11235051E+004  2.73412005E+000   7.34206454E-007    7921.01  <-- SCF
     22  -6.11235051E+004  2.73410213E+000   3.03925128E-007    8265.94  <-- SCF
     23  -6.11235051E+004  2.73404309E+000   1.96810387E-008    8571.34  <-- SCF
     24  -6.11235051E+004  2.73403078E+000   2.28842162E-008    8859.52  <-- SCF
     25  -6.11235051E+004  2.73401652E+000   2.81925970E-008    9102.58  <-- SCF
     26  -6.11235050E+004  2.73400239E+000  -4.81520772E-007    9343.85  <-- SCF
     27  -6.11235052E+004  2.73400050E+000   2.12405352E-006    9587.34  <-- SCF
     28  -6.11235049E+004  2.73399984E+000  -5.18727658E-006    9826.76  <-- SCF
     29  -6.11235051E+004  2.73399784E+000   3.41403915E-006   10058.52  <-- SCF
     30  -6.11235050E+004  2.73399865E+000  -3.85740699E-007   10298.17  <-- SCF
     31  -6.11235050E+004  2.73399911E+000   1.26681268E-007   10538.61  <-- SCF
     32  -6.11235050E+004  2.73399928E+000  -5.58878647E-008   10780.39  <-- SCF
     33  -6.11235051E+004  2.73399908E+000   8.95094428E-008   11026.81  <-- SCF
     34  -6.11235051E+004  2.73399921E+000   2.72020632E-008   11257.43  <-- SCF
     35  -6.11235051E+004  2.73399922E+000   2.37902904E-008   11493.01  <-- SCF
     36  -6.11235051E+004  2.73399922E+000   4.85479372E-008   11729.76  <-- SCF
     37  -6.11235051E+004  2.73399920E+000  -2.45466943E-008   11962.52  <-- SCF
     38  -6.11235051E+004  2.73399920E+000  -1.29808432E-008   12198.85  <-- SCF
     39  -6.11235051E+004  2.73399919E+000  -2.16746769E-009   12433.53  <-- SCF
     40  -6.11235051E+004  2.73399918E+000  -2.12800740E-008   12668.44  <-- SCF
     41  -6.11235051E+004  2.73399917E+000   8.14543589E-010   12898.60  <-- SCF
     42  -6.11235051E+004  2.73399916E+000   4.07018416E-008   13137.03  <-- SCF
     43  -6.11235051E+004  2.73399915E+000   4.29761604E-008   13375.25  <-- SCF
     44  -6.11235051E+004  2.73399913E+000   3.67402960E-008   13626.34  <-- SCF
     45  -6.11235051E+004  2.73399912E+000   3.51194584E-009   13876.04  <-- SCF
     46  -6.11235051E+004  2.73399912E+000   7.08890588E-008   14119.64  <-- SCF
     47  -6.11235051E+004  2.73399913E+000   1.58560033E-008   14351.40  <-- SCF
     48  -6.11235051E+004  2.73399913E+000   8.18668358E-009   14587.43  <-- SCF
     49  -6.11235051E+004  2.73399912E+000  -2.27031192E-008   14832.89  <-- SCF
     50  -6.11235051E+004  2.73399911E+000  -5.88074152E-009   15067.12  <-- SCF
     51  -6.11235051E+004  2.73399911E+000   1.03567047E-008   15294.71  <-- SCF
     52  -6.11235051E+004  2.73399910E+000  -1.08265355E-009   15521.12  <-- SCF
     53  -6.11235051E+004  2.73399910E+000  -6.68251796E-009   15759.64  <-- SCF
     54  -6.11235051E+004  2.73399910E+000  -4.85170996E-009   15996.78  <-- SCF
     55  -6.11235051E+004  2.73399910E+000  -1.32597561E-008   16237.51  <-- SCF
     56  -6.11235051E+004  2.73399911E+000   9.52762621E-009   16476.06  <-- SCF
     57  -6.11235051E+004  2.73399911E+000   8.47188187E-009   16708.07  <-- SCF
     58  -6.11235051E+004  2.73399910E+000  -7.54105909E-009   16941.38  <-- SCF
     59  -6.11235051E+004  2.73399911E+000  -1.04307541E-008   17176.76  <-- SCF
     60  -6.11235051E+004  2.73399910E+000   1.06536880E-008   17413.06  <-- SCF
     61  -6.11235051E+004  2.73399909E+000   2.29724077E-008   17658.20  <-- SCF
     62  -6.11235051E+004  2.73399909E+000   3.70522071E-009   17896.73  <-- SCF
     63  -6.11235051E+004  2.73399909E+000   9.64370898E-009   18132.25  <-- SCF
     64  -6.11235051E+004  2.73399909E+000  -7.23445129E-009   18358.53  <-- SCF
     65  -6.11235051E+004  2.73399911E+000   2.00738738E-009   18591.83  <-- SCF
     66  -6.11235051E+004  2.73399909E+000   1.51076525E-008   18823.79  <-- SCF
     67  -6.11235051E+004  2.73399908E+000   2.61557469E-008   19065.36  <-- SCF
     68  -6.11235051E+004  2.73399909E+000   1.20802687E-008   19293.87  <-- SCF
     69  -6.11235051E+004  2.73399908E+000   2.54618037E-008   19524.12  <-- SCF
     70  -6.11235051E+004  2.73399907E+000  -5.02946784E-009   19758.95  <-- SCF
     71  -6.11235051E+004  2.73399906E+000   5.14515778E-009   20002.72  <-- SCF
     72  -6.11235051E+004  2.73399907E+000   8.87650202E-009   20240.84  <-- SCF
     73  -6.11235051E+004  2.73399907E+000   3.34931210E-009   20473.67  <-- SCF
     74  -6.11235051E+004  2.73399907E+000  -1.63935982E-008   20711.29  <-- SCF
     75  -6.11235051E+004  2.73399907E+000   1.75852635E-009   20945.68  <-- SCF
     76  -6.11235051E+004  2.73399906E+000   5.76485516E-010   21185.46  <-- SCF
     77  -6.11235051E+004  2.73399906E+000   6.72278356E-009   21416.24  <-- SCF
     78  -6.11235051E+004  2.73399906E+000   1.37967617E-008   21658.08  <-- SCF
     79  -6.11235051E+004  2.73399906E+000   1.22643120E-008   21891.36  <-- SCF
     80  -6.11235051E+004  2.73399906E+000  -5.50813742E-009   22129.07  <-- SCF
     81  -6.11235051E+004  2.73399907E+000  -2.98495754E-008   22364.77  <-- SCF
     82  -6.11235051E+004  2.73399909E+000  -2.71671009E-008   22599.24  <-- SCF
     83  -6.11235051E+004  2.73399910E+000   7.85395225E-009   22834.00  <-- SCF
     84  -6.11235051E+004  2.73399911E+000   1.86423827E-008   23071.06  <-- SCF
     85  -6.11235051E+004  2.73399911E+000  -7.73904798E-009   23301.86  <-- SCF
     86  -6.11235051E+004  2.73399912E+000   1.08889963E-008   23536.69  <-- SCF
     87  -6.11235051E+004  2.73399912E+000  -2.01037293E-008   23764.34  <-- SCF
     88  -6.11235051E+004  2.73399911E+000   4.76469698E-009   24002.32  <-- SCF
     89  -6.11235051E+004  2.73399912E+000   2.14446719E-008   24236.94  <-- SCF
     90  -6.11235051E+004  2.73399912E+000  -6.30971745E-009   24472.40  <-- SCF
     91  -6.11235051E+004  2.73399912E+000  -2.68993838E-009   24713.38  <-- SCF
     92  -6.11235051E+004  2.73399912E+000   5.21213617E-009   24945.54  <-- SCF
     93  -6.11235051E+004  2.73399912E+000   8.48445259E-009   25187.50  <-- SCF
     94  -6.11235051E+004  2.73399912E+000   1.03588653E-008   25420.33  <-- SCF
     95  -6.11235051E+004  2.73399911E+000  -1.10885565E-008   25653.58  <-- SCF
     96  -6.11235051E+004  2.73399912E+000  -1.55562701E-010   25889.49  <-- SCF
     97  -6.11235051E+004  2.73399913E+000   5.48004971E-010   26127.04  <-- SCF
     98  -6.11235051E+004  2.73399912E+000  -1.07179166E-008   26364.66  <-- SCF
     99  -6.11235051E+004  2.73399912E+000  -1.27598735E-008   26608.35  <-- SCF
    100  -6.11235051E+004  2.73399912E+000  -2.26508721E-009   26847.78  <-- SCF
------------------------------------------------------------------------ <-- SCF
 *Warning* max. SCF cycles performed but system has not reached the groundstate.
  
Current total energy, E     =  -61123.24601133     eV
Current free energy (E-TS)  =  -61123.50507127     eV
(energies not corrected for finite basis set)
 
NB est. 0K energy (E-0.5TS)      =  -61123.37554130     eV
 
  ****************************************************************************
  Warning: electronic minimisation did not converge when finding ground state.
  ****************************************************************************
  Writing checkpoint file...
 
Overall parallel efficiency rating: Terrible (28%)
 
Data was distributed by:-
G-vector (3-way); efficiency rating: Terrible (31%)
k-point (36-way); efficiency rating: Good (73%)
 +-------------------------------------------------+
 |                                                 |
 |      CCC   AA    SSS  TTTTT  EEEEE  PPPP        |
 |     C     A  A  S       T    E      P   P       |
 |     C     AAAA   SS     T    EEE    PPPP        |
 |     C     A  A     S    T    E      P           |
 |      CCC  A  A  SSS     T    EEEEE  P           |
 |                                                 |
 +-------------------------------------------------+
 |                                                 |
 | Welcome to Academic Release CASTEP version 24.1 |
 | Ab Initio Total Energy Program                  |
 |                                                 |
 | Authors:                                        |
 | M. Segall, M. Probert, C. Pickard, P. Hasnip,   |
 | S. Clark, K. Refson, J. R. Yates,               |
 | A. Bartok-Partay, M. Payne                      |
 |                                                 |
 | Contributors:                                   |
 | P. Lindan, P. Haynes, J. White, V. Milman,      |
 | N. Govind, M. Gibson, P. Tulip, V. Cocula,      |
 | B. Montanari, D. Quigley, M. Glover,            |
 | L. Bernasconi, A. Perlov, M. Plummer,           |
 | E. McNellis, J. Meyer, J. Gale, D. Jochym       |
 | J. Aarons, B. Walker, R. Gillen, D. Jones       |
 | T. Green, I. J. Bush, C. J. Armstrong,          |
 | E. J. Higgins, E. L. Brown, M. S. McFly,        |
 | J. Wilkins, B-C. Shih, P. J. P. Byrne,          |
 | R. J. Maurer, J. C. Womack, J. Dziedzic,        |
 | L. LeBlanc, T. K. Stenczel, J. Kermode,         |
 | S. Sturniolo, B. Shi, B. Durham, M. Evans,      |
 | M. J. Smith, A. Tamerus, Z. Hawkhead,           |
 | V. Ravindran, T. Hollins, S. A. Joyce,          |
 | R. T. Strong, A. M. Reilly, S. J. Donaldson     |
 |                                                 |
 | Copyright (c) 2000 - 2023                       |
 |                                                 |
 |     Distributed under license from Cambridge    |
 |     Enterprise for academic use only.           |
 |                                                 |
 | Please cite                                     |
 |                                                 |
 |     "First principles methods using CASTEP"     |
 |                                                 |
 |         Zeitschrift fuer Kristallographie       |
 |           220(5-6) pp. 567-570 (2005)           |
 |                                                 |
 | S. J. Clark, M. D. Segall, C. J. Pickard,       |
 | P. J. Hasnip, M. J. Probert, K. Refson,         |
 | M. C. Payne                                     |
 |                                                 |
 |       in all publications arising from          |
 |              your use of CASTEP                 |
 |                                                 |
 +-------------------------------------------------+
 |                                                 |
 |              http://www.castep.org              |
 |                                                 |
 +-------------------------------------------------+



 Compiled for  GNU 11.2.0 on 04-04-2024 18:39:17
 from code version 6355fd106 Castep241_branch Thu Mar 7 17:56:19 2024 +0000
 Compiler: GNU Fortran 11.2.0; Optimisation: FAST
 Comms   : MPI VERSION : CRAY MPICH version 8.1.23.14 (ANL base 3.4a2)
 MATHLIBS: default (LAPACK version 3.10.1)
 FFT Lib : fftw3 version commercial-fftw-3.3.10-sse2-avx-avx2-avx2_128
 Fundamental constants values: CODATA 2018

 Run started: Wed, 30 Apr 2025 02:58:46 +0100

 Atomic calculation performed for P: 1s2 2s2 2p6 3s2 3p3

 Converged in 47 iterations to an ae energy of -9309.074 eV

   ============================================================                
   | Pseudopotential Report - Date of generation 30-04-2025   |                
   ------------------------------------------------------------                
   | Element: P Ionic charge:  5.00 Level of theory: RSCAN    |                
   | Atomic Solver: Koelling-Harmon                           |                
   |                                                          |                
   |               Reference Electronic Structure             |                
   |         Orbital         Occupation         Energy        |                
   |            3s              2.000           -0.535        |                
   |            3p              3.000           -0.209        |                
   |                                                          |                
   |                 Pseudopotential Definition               |                
   |        Beta     l      e      Rc     scheme   norm       |                
   |          1      0   -0.535   1.807     qc      0         |                
   |          2      0    0.250   1.807     qc      0         |                
   |          3      1   -0.209   1.807     qc      0         |                
   |          4      1    0.250   1.807     qc      0         |                
   |          5      2    0.000   1.807     qc      0         |                
   |          6      2    0.250   1.807     qc      0         |                
   |         loc     3    0.000   1.807     pn      0         |                
   |                                                          |                
   | Augmentation charge Rinner = 1.263                       |                
   | Partial core correction Rc = 1.263                       |                
   ------------------------------------------------------------                
   | "3|1.8|4|4|5|30:31:32"                                   |                
   ------------------------------------------------------------                
   |      Author: Chris J. Pickard, Cambridge University      |                
   ============================================================                
 Warning: otfg_output_psp cannot write out meta-GGA pseudopotentials presently.

 Atomic calculation performed for In:
 1s2 2s2 2p6 3s2 3p6 3d10 4s2 4p6 4d10 5s2 5p1

 Converged in 84 iterations to an ae energy of -160093.328 eV

   ============================================================                
   | Pseudopotential Report - Date of generation 30-04-2025   |                
   ------------------------------------------------------------                
   | Element: In Ionic charge: 13.00 Level of theory: RSCAN   |                
   | Atomic Solver: Koelling-Harmon                           |                
   |                                                          |                
   |               Reference Electronic Structure             |                
   |         Orbital         Occupation         Energy        |                
   |            4d             10.000           -0.711        |                
   |            5s              2.000           -0.313        |                
   |            5p              1.000           -0.095        |                
   |                                                          |                
   |                 Pseudopotential Definition               |                
   |        Beta     l      e      Rc     scheme   norm       |                
   |          1      0   -0.313   2.501     qc      0         |                
   |          2      0    0.250   2.501     qc      0         |                
   |          3      1   -0.095   2.501     qc      0         |                
   |          4      1    0.250   2.501     qc      0         |                
   |          5      2   -0.711   2.207     qc      0         |                
   |          6      2    0.250   2.207     qc      0         |                
   |         loc     3    0.000   2.501     pn      0         |                
   |                                                          |                
   | Augmentation charge Rinner = 1.504                       |                
   | Partial core correction Rc = 1.504                       |                
   ------------------------------------------------------------                
   | "3|2.5|2.5|1.5|7|8|9|50:51:42U2.2U2.2"                   |                
   ------------------------------------------------------------                
   |      Author: Chris J. Pickard, Cambridge University      |                
   ============================================================                
 Warning: otfg_output_psp cannot write out meta-GGA pseudopotentials presently.

 Pseudo atomic calculation performed for P 3s2 3p3

 Converged in 21 iterations to a total energy of -208.0292 eV

 Pseudo atomic calculation performed for In 4d10 5s2 5p1

 Converged in 32 iterations to a total energy of -1747.4501 eV
 Calculation parallelised over 108 processes.
 Data is distributed by G-vector(3-way) and k-point(36-way)
 Each process may use up to 16 threads.

 ************************************ Title ************************************
 

 ***************************** General Parameters ******************************
  
 output verbosity                               : normal  (1)
 write checkpoint data to                       : In_Vacancy_Migration_3->60_Singlepoints_3.check
 type of calculation                            : single point energy
 stress calculation                             : off
 density difference calculation                 : off
 electron localisation func (ELF) calculation   : off
 Hirshfeld analysis                             : on
 polarisation (Berry phase) analysis            : off
 molecular orbital projected DOS                : off
 deltaSCF calculation                           : off
 unlimited duration calculation
 timing information                             : on
 memory usage estimate                          : on
 write extra output files                       : on
 write final potential to formatted file        : off
 write final density to formatted file          : off
 write BibTeX reference list                    : on
 write OTFG pseudopotential files               : on
 write electrostatic potential file             : on
 write bands file                               : on
 checkpoint writing                             : off
  
 output         length unit                     : A
 output           mass unit                     : amu
 output           time unit                     : ps
 output         charge unit                     : e
 output           spin unit                     : hbar/2
 output         energy unit                     : eV
 output          force unit                     : eV/A
 output       velocity unit                     : A/ps
 output       pressure unit                     : GPa
 output     inv_length unit                     : 1/A
 output      frequency unit                     : cm-1
 output force constant unit                     : eV/A**2
 output         volume unit                     : A**3
 output   IR intensity unit                     : (D/A)**2/amu
 output         dipole unit                     : D
 output         efield unit                     : eV/A/e
 output        entropy unit                     : J/mol/K
 output    efield chi2 unit                     : pm/V
  
 wavefunctions paging                           : none
 random number generator seed                   :   25846820
 data distribution                              : optimal for this architecture
 optimization strategy                          : balance speed and memory

 *********************** Exchange-Correlation Parameters ***********************
  
 using functional                               : RSCAN
 relativistic treatment                         : Koelling-Harmon
 DFT+D: Semi-empirical dispersion correction    : off

 ************************* Pseudopotential Parameters **************************
  
 pseudopotential representation                 : reciprocal space
 <beta|phi> representation                      : reciprocal space
 spin-orbit coupling                            : off

 **************************** Basis Set Parameters *****************************
  
 plane wave basis set cut-off                   :   900.0000   eV
 size of standard grid                          :     2.0000
 size of   fine   gmax                          :    30.7390   1/A
 finite basis set correction                    : none

 **************************** Electronic Parameters ****************************
  
 number of  electrons                           :  563.0    
 net charge of system                           :  0.000    
 net spin   of system                           :  1.000    
 number of  up  spins                           :  282.0    
 number of down spins                           :  281.0    
 treating system as spin-polarized
 number of bands                                :        338

 ********************* Electronic Minimization Parameters **********************
  
 Method: Treating system as metallic with density mixing treatment of electrons,
         and number of  SD  steps               :          1
         and number of  CG  steps               :          4
  
 total energy / atom convergence tol.           : 0.5000E-07   eV
 eigen-energy convergence tolerance             : 0.1117E-07   eV
 max force / atom convergence tol.              : ignored
 convergence tolerance window                   :          3   cycles
 max. number of SCF cycles                      :        100
 number of fixed-spin iterations                :         10
 smearing scheme                                : Gaussian
 smearing width                                 : 0.2000       eV
 Fermi energy convergence tolerance             : 0.2721E-13   eV
 periodic dipole correction                     : NONE

 ************************** Density Mixing Parameters **************************
  
 density-mixing scheme                          : Pulay
 max. length of mixing history                  :         20
 charge density mixing amplitude                : 0.5000    
   spin density mixing amplitude                :  2.000    
 cut-off energy for mixing                      :  900.0       eV

 *********************** Population Analysis Parameters ************************
  
 Population analysis with cutoff                :  3.000       A
 Population analysis output                     : summary and pdos components

 *******************************************************************************
  

                           -------------------------------
                                      Unit Cell
                           -------------------------------
        Real Lattice(A)                      Reciprocal Lattice(1/A)
    11.8016820    -0.0000080    -0.0000080        0.532397442   0.000000361   0.000000361
    -0.0000080    11.8016820    -0.0000080        0.000000361   0.532397442   0.000000361
    -0.0000080    -0.0000080    11.8016820        0.000000361   0.000000361   0.532397442

                       Lattice parameters(A)       Cell Angles
                    a =     11.801682          alpha =   90.000078
                    b =     11.801682          beta  =   90.000078
                    c =     11.801682          gamma =   90.000078

                       Current cell volume =          1643.734705       A**3
                                   density =             2.768402   AMU/A**3
                                           =             4.597040     g/cm^3

                           -------------------------------
                                     Cell Contents
                           -------------------------------
                         Total number of ions in cell =   63
                      Total number of species in cell =    2
                        Max number of any one species =   32

            xxxxxxxxxxxxxxxxxxxxxxxxxxxxxxxxxxxxxxxxxxxxxxxxxxxxxxxxxxxx
            x  Element    Atom        Fractional coordinates of atoms  x
            x            Number           u          v          w      x
            x----------------------------------------------------------x
            x  P            1         0.134099   0.134099   0.379688   x 
            x  P            2         0.379688   0.134099   0.134099   x 
            x  P            3         0.134099   0.379688   0.134099   x 
            x  P            4         0.430667   0.430668   0.430668   x 
            x  P            5         0.125942   0.125942   0.876526   x 
            x  P            6         0.376032   0.125055   0.623430   x 
            x  P            7         0.125055   0.376032   0.623430   x 
            x  P            8         0.373469   0.373469   0.872494   x 
            x  P            9         0.125055   0.623430   0.376032   x 
            x  P           10         0.376032   0.623430   0.125055   x 
            x  P           11         0.125942   0.876526   0.125942   x 
            x  P           12         0.373469   0.872494   0.373469   x 
            x  P           13         0.126109   0.624717   0.874453   x 
            x  P           14         0.383754   0.607508   0.607508   x 
            x  P           15         0.126109   0.874453   0.624717   x 
            x  P           16         0.376642   0.873835   0.873835   x 
            x  P           17         0.623430   0.125055   0.376032   x 
            x  P           18         0.876526   0.125942   0.125942   x 
            x  P           19         0.623430   0.376032   0.125055   x 
            x  P           20         0.872494   0.373469   0.373469   x 
            x  P           21         0.624717   0.126109   0.874453   x 
            x  P           22         0.874453   0.126109   0.624717   x 
            x  P           23         0.607508   0.383755   0.607508   x 
            x  P           24         0.873836   0.376642   0.873836   x 
            x  P           25         0.607508   0.607508   0.383755   x 
            x  P           26         0.874453   0.624717   0.126109   x 
            x  P           27         0.624717   0.874453   0.126109   x 
            x  P           28         0.873836   0.873836   0.376642   x 
            x  P           29         0.624342   0.624342   0.872189   x 
            x  P           30         0.872189   0.624342   0.624342   x 
            x  P           31         0.624342   0.872189   0.624342   x 
            x  P           32         0.874677   0.874677   0.874677   x 
            x  In           1        -0.000242  -0.000242  -0.000242   x 
            x  In           2         0.251035   0.003816   0.251035   x 
            x  In           3         0.003816   0.251035   0.251035   x 
            x  In           4         0.251035   0.251035   0.003816   x 
            x  In           5         0.003009   0.003008   0.498513   x 
            x  In           6         0.250581   0.000894   0.749849   x 
            x  In           7         0.000894   0.250581   0.749849   x 
            x  In           8         0.270596   0.270596   0.498932   x 
            x  In           9         0.003009   0.498513   0.003008   x 
            x  In          10         0.270596   0.498932   0.270596   x 
            x  In          11         0.000894   0.749849   0.250581   x 
            x  In          12         0.250581   0.749849   0.000894   x 
            x  In          13        -0.003751   0.499049   0.499049   x 
            x  In          14         0.252771   0.502229   0.744998   x 
            x  In          15        -0.000572   0.748965   0.748965   x 
            x  In          16         0.252771   0.744998   0.502229   x 
            x  In          17         0.498513   0.003008   0.003008   x 
            x  In          18         0.749849   0.000894   0.250581   x 
            x  In          19         0.498932   0.270595   0.270595   x 
            x  In          20         0.749849   0.250581   0.000894   x 
            x  In          21         0.499049  -0.003751   0.499049   x 
            x  In          22         0.748965  -0.000572   0.748965   x 
            x  In          23         0.502229   0.252771   0.744998   x 
            x  In          24         0.744998   0.252771   0.502229   x 
            x  In          25         0.499049   0.499049  -0.003751   x 
            x  In          26         0.744998   0.502229   0.252771   x 
            x  In          27         0.502229   0.744998   0.252771   x 
            x  In          28         0.748965   0.748965  -0.000572   x 
            x  In          29         0.741700   0.495794   0.741700   x 
            x  In          30         0.495794   0.741699   0.741699   x 
            x  In          31         0.741700   0.741700   0.495794   x 
            xxxxxxxxxxxxxxxxxxxxxxxxxxxxxxxxxxxxxxxxxxxxxxxxxxxxxxxxxxxx


                         No user defined ionic velocities

                           -------------------------------
                                   Details of Species
                           -------------------------------

                               Mass of species in AMU
                                    P   30.9737600
                                    In  114.8180000

                          Electric Quadrupole Moment (Barn)
                                    P    1.0000000 No Isotope Defined
                                    In    0.7700000 Isotope115

                          Files used for pseudopotentials:
                                    P 3|1.8|4|4|5|30:31:32
                                    In 3|2.5|2.5|1.5|7|8|9|50:51:42U2.2U2.2

                           -------------------------------
                              k-Points For BZ Sampling
                           -------------------------------
                       MP grid size for SCF calculation is  4  4  4
                            with an offset of   0.125  0.125  0.125
                       Number of kpoints used =            36

                           -------------------------------
                               Symmetry and Constraints
                           -------------------------------

                      Maximum deviation from symmetry =  0.00000         ANG

                      Number of symmetry operations   =           1
                      Number of ionic constraints     =           3
                      Point group of crystal =     1: C1, 1, 1
                      Space group of crystal =   160: R3m, R 3 -2"

             Set iprint > 1 for details on symmetry rotations/translations

                         Centre of mass is constrained
             Set iprint > 1 for details of linear ionic constraints

                         Number of cell constraints= 0
                         Cell constraints are:  1 2 3 4 5 6

                         External pressure/stress (GPa)
                          0.00000   0.00000   0.00000
                                    0.00000   0.00000
                                              0.00000
 
+---------------- MEMORY AND SCRATCH DISK ESTIMATES PER PROCESS --------------+
|                                                     Memory          Disk    |
| Baseline code, static data and system overhead      368.0 MB         0.0 MB |
| BLAS internal memory storage                          0.0 MB         0.0 MB |
| Model and support data                             4296.9 MB         0.0 MB |
| Electronic energy minimisation requirements        1299.4 MB         0.0 MB |
| Force calculation requirements                      127.4 MB         0.0 MB |
|                                               ----------------------------- |
| Approx. total storage required per process         5964.3 MB         0.0 MB |
|                                                                             |
| Requirements will fluctuate during execution and may exceed these estimates |
+-----------------------------------------------------------------------------+
Calculating approximate eigenstates for fixed initial Hamiltonian
Cut-off for approx. calculation is   89.988 eV
Improving approx. states at cut-off of  450.000 eV
Resetting cut-off to  900.000 eV
Calculating total energy with cut-off of  900.000 eV.
------------------------------------------------------------------------ <-- SCF
SCF loop      Energy           Fermi           Energy gain       Timer   <-- SCF
                               energy          per atom          (sec)   <-- SCF
------------------------------------------------------------------------ <-- SCF
Initial  -6.12907523E+004  0.00000000E+000                       429.56  <-- SCF
      1  -6.10531530E+004  2.13724845E+000  -3.77141869E+000     869.90  <-- SCF
      2  -6.10535851E+004  2.13701548E+000   6.85992315E-003    1171.96  <-- SCF
      3  -6.11176543E+004  2.34995442E+000   1.01697148E+000    1512.01  <-- SCF
      4  -6.11291555E+004  2.41864205E+000   1.82558612E-001    1984.67  <-- SCF
      5  -6.11353627E+004  2.52902149E+000   9.85257597E-002    2328.72  <-- SCF
      6  -6.11234965E+004  2.65501512E+000  -1.88351575E-001    2669.27  <-- SCF
      7  -6.11219162E+004  2.69697924E+000  -2.50847936E-002    3002.19  <-- SCF
      8  -6.11223729E+004  2.73293262E+000   7.25030542E-003    3351.50  <-- SCF
      9  -6.11230983E+004  2.75002853E+000   1.15130451E-002    3703.53  <-- SCF
     10  -6.11234239E+004  2.73783056E+000   5.16924181E-003    4039.66  <-- SCF
     11  -6.11234791E+004  2.73749947E+000   8.75424366E-004    4397.49  <-- SCF
     12  -6.11235004E+004  2.73584462E+000   3.39158564E-004    4740.75  <-- SCF
     13  -6.11235032E+004  2.73518382E+000   4.38181990E-005    5097.13  <-- SCF
     14  -6.11235034E+004  2.73471935E+000   3.07589749E-006    5418.75  <-- SCF
     15  -6.11235038E+004  2.73418534E+000   5.95899191E-006    5743.13  <-- SCF
     16  -6.11235039E+004  2.73414360E+000   2.54207898E-006    6057.66  <-- SCF
     17  -6.11235042E+004  2.73414081E+000   3.70060372E-006    6365.68  <-- SCF
     18  -6.11235047E+004  2.73421199E+000   8.03909720E-006    6723.22  <-- SCF
     19  -6.11235048E+004  2.73423170E+000   2.75598849E-006    7049.99  <-- SCF
     20  -6.11235050E+004  2.73407597E+000   2.58022818E-006    7381.81  <-- SCF
     21  -6.11235051E+004  2.73413504E+000   7.46099143E-007    7712.33  <-- SCF
     22  -6.11235051E+004  2.73409845E+000   3.12543341E-007    8026.63  <-- SCF
     23  -6.11235051E+004  2.73403926E+000   8.64885408E-009    8283.81  <-- SCF
     24  -6.11235051E+004  2.73402382E+000   1.83322394E-008    8524.89  <-- SCF
------------------------------------------------------------------------ <-- SCF
 
Integrated Spin Density     =    0.581359E-02 hbar/2
Integrated |Spin Density|   =    0.720050E-02 hbar/2
 
Final energy, E             =  -61123.24601400     eV
Final free energy (E-TS)    =  -61123.50507177     eV
(energies not corrected for finite basis set)
 
NB est. 0K energy (E-0.5TS)      =  -61123.37554289     eV
 

 ************************** Forces **************************
 *                                                          *
 *               Cartesian components (eV/A)                *
 * -------------------------------------------------------- *
 *                         x            y            z      *
 *                                                          *
 * P               1      0.03034      0.03034     -0.01403 *
 * P               2     -0.01403      0.03034      0.03034 *
 * P               3      0.03034     -0.01403      0.03034 *
 * P               4     -0.58789     -0.58791     -0.58791 *
 * P               5      0.01447      0.01447      0.01668 *
 * P               6      0.03880      0.03178     -0.00474 *
 * P               7      0.03179      0.03879     -0.00474 *
 * P               8      0.00234      0.00233      0.01926 *
 * P               9      0.03178     -0.00474      0.03879 *
 * P              10      0.03880     -0.00474      0.03178 *
 * P              11      0.01447      0.01667      0.01447 *
 * P              12      0.00234      0.01926      0.00233 *
 * P              13     -0.00517      0.01989      0.00243 *
 * P              14     -0.09990      0.19936      0.19936 *
 * P              15     -0.00517      0.00243      0.01989 *
 * P              16     -0.02090     -0.00302     -0.00302 *
 * P              17     -0.00475      0.03180      0.03879 *
 * P              18      0.01667      0.01447      0.01447 *
 * P              19     -0.00474      0.03880      0.03179 *
 * P              20      0.01927      0.00234      0.00234 *
 * P              21      0.01988     -0.00518      0.00244 *
 * P              22      0.00244     -0.00517      0.01989 *
 * P              23      0.19936     -0.09990      0.19936 *
 * P              24     -0.00302     -0.02088     -0.00301 *
 * P              25      0.19937      0.19936     -0.09990 *
 * P              26      0.00244      0.01989     -0.00517 *
 * P              27      0.01988      0.00243     -0.00518 *
 * P              28     -0.00301     -0.00301     -0.02088 *
 * P              29     -0.01588     -0.01587     -0.00533 *
 * P              30     -0.00534     -0.01588     -0.01588 *
 * P              31     -0.01588     -0.00534     -0.01587 *
 * P              32     -0.01125     -0.01125     -0.01125 *
 * In              1      0.01055      0.01055      0.01054 *
 * In              2      0.05236      0.02212      0.05236 *
 * In              3      0.02212      0.05236      0.05236 *
 * In              4      0.05236      0.05236      0.02212 *
 * In              5      0.02324      0.02325      0.04332 *
 * In              6     -0.04078     -0.01378      0.01159 *
 * In              7     -0.01377     -0.04080      0.01159 *
 * In              8     -0.07217     -0.07216      0.00506 *
 * In              9      0.02325      0.04332      0.02325 *
 * In             10     -0.07217      0.00506     -0.07216 *
 * In             11     -0.01378      0.01159     -0.04080 *
 * In             12     -0.04078      0.01159     -0.01378 *
 * In             13      0.08461     -0.01341     -0.01341 *
 * In             14      0.03491      0.01897     -0.03658 *
 * In             15     -0.01582     -0.00633     -0.00633 *
 * In             16      0.03491     -0.03658      0.01897 *
 * In             17      0.04333      0.02324      0.02324 *
 * In             18      0.01160     -0.01377     -0.04079 *
 * In             19      0.00507     -0.07216     -0.07215 *
 * In             20      0.01160     -0.04079     -0.01377 *
 * In             21     -0.01341      0.08461     -0.01341 *
 * In             22     -0.00633     -0.01583     -0.00634 *
 * In             23      0.01897      0.03492     -0.03658 *
 * In             24     -0.03659      0.03491      0.01897 *
 * In             25     -0.01341     -0.01341      0.08460 *
 * In             26     -0.03659      0.01897      0.03491 *
 * In             27      0.01897     -0.03658      0.03492 *
 * In             28     -0.00634     -0.00633     -0.01583 *
 * In             29     -0.00997      0.03621     -0.00997 *
 * In             30      0.03622     -0.00997     -0.00997 *
 * In             31     -0.00997     -0.00997      0.03621 *
 *                                                          *
 ************************************************************

 Pseudo atomic calculation performed for P 3s2 3p3

 Converged in 21 iterations to a total energy of -208.0292 eV

 Pseudo atomic calculation performed for In 4d10 5s2 5p1

 Converged in 32 iterations to a total energy of -1747.4501 eV
Charge spilling parameter for spin component 1 = 0.17%
Charge spilling parameter for spin component 2 = 0.17%

                   Orbital Populations                  
  ---------------------------------------------------------------
     Ion    Atom   Orbital              Up        Down      Spin
  ---------------------------------------------------------------
      P     1      S                    0.878     0.878     0.000
      P     1      Px                   0.643     0.643     0.000
      P     1      Py                   0.643     0.643     0.000
      P     1      Pz                   0.655     0.655     0.000
      P     2      S                    0.878     0.878     0.000
      P     2      Px                   0.655     0.655     0.000
      P     2      Py                   0.643     0.643     0.000
      P     2      Pz                   0.643     0.643     0.000
      P     3      S                    0.878     0.878     0.000
      P     3      Px                   0.643     0.643     0.000
      P     3      Py                   0.655     0.655     0.000
      P     3      Pz                   0.643     0.643     0.000
      P     4      S                    0.945     0.945     0.000
      P     4      Px                   0.568     0.568     0.000
      P     4      Py                   0.568     0.568     0.000
      P     4      Pz                   0.568     0.568     0.000
      P     5      S                    0.871     0.871    -0.000
      P     5      Px                   0.654     0.654     0.000
      P     5      Py                   0.654     0.654     0.000
      P     5      Pz                   0.653     0.653     0.000
      P     6      S                    0.871     0.871    -0.000
      P     6      Px                   0.663     0.663    -0.000
      P     6      Py                   0.645     0.645     0.000
      P     6      Pz                   0.651     0.651     0.000
      P     7      S                    0.871     0.871     0.000
      P     7      Px                   0.645     0.645     0.000
      P     7      Py                   0.663     0.663    -0.000
      P     7      Pz                   0.651     0.651     0.000
      P     8      S                    0.869     0.869    -0.000
      P     8      Px                   0.654     0.654    -0.000
      P     8      Py                   0.654     0.654    -0.000
      P     8      Pz                   0.655     0.655     0.000
      P     9      S                    0.871     0.871     0.000
      P     9      Px                   0.645     0.645     0.000
      P     9      Py                   0.651     0.651     0.000
      P     9      Pz                   0.663     0.663    -0.000
      P    10      S                    0.871     0.871     0.000
      P    10      Px                   0.663     0.663    -0.000
      P    10      Py                   0.651     0.651     0.000
      P    10      Pz                   0.645     0.645     0.000
      P    11      S                    0.871     0.871    -0.000
      P    11      Px                   0.654     0.654     0.000
      P    11      Py                   0.653     0.653     0.000
      P    11      Pz                   0.654     0.654     0.000
      P    12      S                    0.869     0.869    -0.000
      P    12      Px                   0.654     0.654    -0.000
      P    12      Py                   0.655     0.655     0.000
      P    12      Pz                   0.654     0.654    -0.000
      P    13      S                    0.873     0.873    -0.000
      P    13      Px                   0.651     0.651     0.000
      P    13      Py                   0.655     0.655     0.000
      P    13      Pz                   0.649     0.649     0.000
      P    14      S                    0.905     0.905     0.000
      P    14      Px                   0.635     0.635     0.000
      P    14      Py                   0.604     0.604     0.000
      P    14      Pz                   0.604     0.604     0.000
      P    15      S                    0.873     0.873    -0.000
      P    15      Px                   0.651     0.651     0.000
      P    15      Py                   0.649     0.649     0.000
      P    15      Pz                   0.655     0.655     0.000
      P    16      S                    0.876     0.876     0.000
      P    16      Px                   0.661     0.661     0.000
      P    16      Py                   0.643     0.643     0.000
      P    16      Pz                   0.643     0.643     0.000
      P    17      S                    0.871     0.871     0.000
      P    17      Px                   0.651     0.651     0.000
      P    17      Py                   0.645     0.645     0.000
      P    17      Pz                   0.663     0.663    -0.000
      P    18      S                    0.871     0.871    -0.000
      P    18      Px                   0.653     0.653     0.000
      P    18      Py                   0.654     0.654     0.000
      P    18      Pz                   0.654     0.654     0.000
      P    19      S                    0.871     0.871     0.000
      P    19      Px                   0.651     0.651     0.000
      P    19      Py                   0.663     0.663    -0.000
      P    19      Pz                   0.645     0.645     0.000
      P    20      S                    0.869     0.869    -0.000
      P    20      Px                   0.655     0.655     0.000
      P    20      Py                   0.654     0.654    -0.000
      P    20      Pz                   0.654     0.654    -0.000
      P    21      S                    0.873     0.873    -0.000
      P    21      Px                   0.655     0.655     0.000
      P    21      Py                   0.651     0.651     0.000
      P    21      Pz                   0.649     0.649     0.000
      P    22      S                    0.873     0.873     0.000
      P    22      Px                   0.649     0.649     0.000
      P    22      Py                   0.651     0.651     0.000
      P    22      Pz                   0.655     0.655     0.000
      P    23      S                    0.905     0.905     0.000
      P    23      Px                   0.604     0.604     0.000
      P    23      Py                   0.635     0.635     0.000
      P    23      Pz                   0.604     0.604     0.000
      P    24      S                    0.876     0.876     0.000
      P    24      Px                   0.643     0.643     0.000
      P    24      Py                   0.661     0.661     0.000
      P    24      Pz                   0.643     0.643     0.000
      P    25      S                    0.905     0.905     0.000
      P    25      Px                   0.604     0.604     0.000
      P    25      Py                   0.604     0.604     0.000
      P    25      Pz                   0.635     0.635     0.000
      P    26      S                    0.873     0.873    -0.000
      P    26      Px                   0.649     0.649     0.000
      P    26      Py                   0.655     0.655     0.000
      P    26      Pz                   0.651     0.651     0.000
      P    27      S                    0.873     0.873    -0.000
      P    27      Px                   0.655     0.655     0.000
      P    27      Py                   0.649     0.649     0.000
      P    27      Pz                   0.651     0.651     0.000
      P    28      S                    0.876     0.876     0.000
      P    28      Px                   0.643     0.643     0.000
      P    28      Py                   0.643     0.643     0.000
      P    28      Pz                   0.661     0.661     0.000
      P    29      S                    0.870     0.870    -0.000
      P    29      Px                   0.655     0.655    -0.000
      P    29      Py                   0.655     0.655     0.000
      P    29      Pz                   0.652     0.652    -0.000
      P    30      S                    0.870     0.870     0.000
      P    30      Px                   0.652     0.652    -0.000
      P    30      Py                   0.655     0.655     0.000
      P    30      Pz                   0.655     0.655    -0.000
      P    31      S                    0.870     0.870    -0.000
      P    31      Px                   0.655     0.655    -0.000
      P    31      Py                   0.652     0.652     0.000
      P    31      Pz                   0.655     0.655     0.000
      P    32      S                    0.870     0.870    -0.000
      P    32      Px                   0.654     0.654     0.000
      P    32      Py                   0.654     0.654     0.000
      P    32      Pz                   0.654     0.654     0.000
     In     1      Dzz                  1.000     1.000    -0.000
     In     1      Dzy                  0.998     0.998    -0.000
     In     1      Dzx                  0.998     0.998    -0.000
     In     1      Dxx-yy               1.000     1.000     0.000
     In     1      Dxy                  0.998     0.998    -0.000
     In     1      S                    0.705     0.705     0.000
     In     1      Px                   0.240     0.240    -0.000
     In     1      Py                   0.240     0.240    -0.000
     In     1      Pz                   0.240     0.240    -0.000
     In     1      S                   -0.231    -0.231    -0.000
     In     2      Dzz                  1.000     1.000     0.000
     In     2      Dzy                  0.998     0.998     0.000
     In     2      Dzx                  0.999     0.999     0.000
     In     2      Dxx-yy               1.000     1.000     0.000
     In     2      Dxy                  0.998     0.998     0.000
     In     2      S                    0.706     0.706    -0.000
     In     2      Px                   0.240     0.240    -0.000
     In     2      Py                   0.243     0.243    -0.000
     In     2      Pz                   0.240     0.240    -0.000
     In     2      S                   -0.259    -0.259     0.000
     In     3      Dzz                  1.000     1.000     0.000
     In     3      Dzy                  0.999     0.999     0.000
     In     3      Dzx                  0.998     0.998     0.000
     In     3      Dxx-yy               1.000     1.000    -0.000
     In     3      Dxy                  0.998     0.998     0.000
     In     3      S                    0.706     0.706    -0.000
     In     3      Px                   0.243     0.243    -0.000
     In     3      Py                   0.240     0.240    -0.000
     In     3      Pz                   0.240     0.240    -0.000
     In     3      S                   -0.259    -0.259     0.000
     In     4      Dzz                  1.000     1.000    -0.000
     In     4      Dzy                  0.998     0.998     0.000
     In     4      Dzx                  0.998     0.998     0.000
     In     4      Dxx-yy               1.000     1.000     0.000
     In     4      Dxy                  0.999     0.999     0.000
     In     4      S                    0.706     0.706    -0.000
     In     4      Px                   0.240     0.240    -0.000
     In     4      Py                   0.240     0.240    -0.000
     In     4      Pz                   0.243     0.243    -0.000
     In     4      S                   -0.259    -0.259     0.000
     In     5      Dzz                  1.000     1.000    -0.000
     In     5      Dzy                  0.999     0.999     0.000
     In     5      Dzx                  0.999     0.999     0.000
     In     5      Dxx-yy               1.000     1.000    -0.000
     In     5      Dxy                  0.999     0.999    -0.000
     In     5      S                    0.713     0.713     0.000
     In     5      Px                   0.238     0.238     0.000
     In     5      Py                   0.238     0.238     0.000
     In     5      Pz                   0.235     0.235     0.000
     In     5      S                   -0.241    -0.241    -0.000
     In     6      Dzz                  1.000     1.000     0.000
     In     6      Dzy                  0.999     0.999    -0.000
     In     6      Dzx                  0.998     0.998     0.000
     In     6      Dxx-yy               1.000     1.000    -0.000
     In     6      Dxy                  0.998     0.998    -0.000
     In     6      S                    0.709     0.709     0.000
     In     6      Px                   0.238     0.238     0.000
     In     6      Py                   0.239     0.239    -0.000
     In     6      Pz                   0.240     0.240     0.000
     In     6      S                   -0.261    -0.261     0.000
     In     7      Dzz                  1.000     1.000    -0.000
     In     7      Dzy                  0.998     0.998     0.000
     In     7      Dzx                  0.999     0.999    -0.000
     In     7      Dxx-yy               1.000     1.000    -0.000
     In     7      Dxy                  0.998     0.998    -0.000
     In     7      S                    0.709     0.709     0.000
     In     7      Px                   0.239     0.239     0.000
     In     7      Py                   0.238     0.238     0.000
     In     7      Pz                   0.240     0.240     0.000
     In     7      S                   -0.261    -0.261     0.000
     In     8      Dzz                  1.000     1.000     0.000
     In     8      Dzy                  0.999     0.999     0.000
     In     8      Dzx                  0.999     0.999     0.000
     In     8      Dxx-yy               1.000     1.000    -0.000
     In     8      Dxy                  0.999     0.999     0.000
     In     8      S                    0.697     0.697     0.000
     In     8      Px                   0.240     0.240     0.000
     In     8      Py                   0.240     0.240     0.000
     In     8      Pz                   0.231     0.231     0.000
     In     8      S                   -0.206    -0.206    -0.000
     In     9      Dzz                  1.000     1.000    -0.000
     In     9      Dzy                  0.999     0.999     0.000
     In     9      Dzx                  0.999     0.999    -0.000
     In     9      Dxx-yy               1.000     1.000    -0.000
     In     9      Dxy                  0.999     0.999     0.000
     In     9      S                    0.713     0.713    -0.000
     In     9      Px                   0.238     0.238     0.000
[...]
                 26   dn:     0.873   1.954   0.000   0.000   2.827
  P              27   up:     0.873   1.955   0.000   0.000   2.827    -0.655        0.000
                 27   dn:     0.873   1.954   0.000   0.000   2.827
  P              28   up:     0.876   1.947   0.000   0.000   2.824    -0.647        0.000
                 28   dn:     0.876   1.947   0.000   0.000   2.824
  P              29   up:     0.870   1.963   0.000   0.000   2.833    -0.666       -0.000
                 29   dn:     0.870   1.963   0.000   0.000   2.833
  P              30   up:     0.870   1.963   0.000   0.000   2.833    -0.666       -0.000
                 30   dn:     0.870   1.963   0.000   0.000   2.833
  P              31   up:     0.870   1.963   0.000   0.000   2.833    -0.666        0.000
                 31   dn:     0.870   1.963   0.000   0.000   2.833
  P              32   up:     0.870   1.962   0.000   0.000   2.832    -0.664        0.000
                 32   dn:     0.870   1.962   0.000   0.000   2.832
  In              1   up:     0.474   0.719   4.995   0.000   6.187     0.625       -0.000
                  1   dn:     0.474   0.719   4.995   0.000   6.187
  In              2   up:     0.447   0.722   4.995   0.000   6.164     0.672       -0.000
                  2   dn:     0.447   0.722   4.995   0.000   6.164
  In              3   up:     0.447   0.722   4.995   0.000   6.164     0.672       -0.000
                  3   dn:     0.447   0.722   4.995   0.000   6.164
  In              4   up:     0.447   0.722   4.995   0.000   6.164     0.672       -0.000
                  4   dn:     0.447   0.722   4.995   0.000   6.164
  In              5   up:     0.473   0.712   4.995   0.000   6.180     0.640        0.000
                  5   dn:     0.473   0.712   4.995   0.000   6.180
  In              6   up:     0.449   0.718   4.995   0.000   6.161     0.678        0.000
                  6   dn:     0.449   0.718   4.995   0.000   6.161
  In              7   up:     0.449   0.718   4.995   0.000   6.161     0.678        0.000
                  7   dn:     0.449   0.718   4.995   0.000   6.161
  In              8   up:     0.491   0.712   4.996   0.000   6.199     0.603        0.000
                  8   dn:     0.491   0.712   4.996   0.000   6.199
  In              9   up:     0.473   0.712   4.995   0.000   6.180     0.641        0.000
                  9   dn:     0.473   0.712   4.995   0.000   6.180
  In             10   up:     0.491   0.712   4.996   0.000   6.199     0.603        0.000
                 10   dn:     0.491   0.712   4.996   0.000   6.199
  In             11   up:     0.449   0.718   4.995   0.000   6.161     0.678        0.000
                 11   dn:     0.449   0.718   4.995   0.000   6.161
  In             12   up:     0.449   0.718   4.995   0.000   6.161     0.678        0.000
                 12   dn:     0.449   0.718   4.995   0.000   6.161
  In             13   up:     0.442   0.720   4.995   0.000   6.157     0.687       -0.000
                 13   dn:     0.442   0.720   4.995   0.000   6.157
  In             14   up:     0.467   0.727   4.994   0.000   6.189     0.622       -0.000
                 14   dn:     0.468   0.727   4.994   0.000   6.189
  In             15   up:     0.450   0.717   4.995   0.000   6.162     0.676       -0.000
                 15   dn:     0.450   0.717   4.995   0.000   6.162
  In             16   up:     0.467   0.727   4.994   0.000   6.189     0.622       -0.000
                 16   dn:     0.468   0.727   4.994   0.000   6.189
  In             17   up:     0.473   0.712   4.995   0.000   6.180     0.640        0.000
                 17   dn:     0.473   0.712   4.995   0.000   6.180
  In             18   up:     0.449   0.718   4.995   0.000   6.161     0.678        0.000
                 18   dn:     0.449   0.718   4.995   0.000   6.161
  In             19   up:     0.491   0.712   4.996   0.000   6.199     0.603        0.000
                 19   dn:     0.491   0.712   4.996   0.000   6.199
  In             20   up:     0.449   0.718   4.995   0.000   6.161     0.678        0.000
                 20   dn:     0.449   0.718   4.995   0.000   6.161
  In             21   up:     0.442   0.720   4.995   0.000   6.157     0.687       -0.000
                 21   dn:     0.442   0.720   4.995   0.000   6.157
  In             22   up:     0.450   0.717   4.995   0.000   6.162     0.676        0.000
                 22   dn:     0.450   0.717   4.995   0.000   6.162
  In             23   up:     0.467   0.727   4.994   0.000   6.189     0.622       -0.000
                 23   dn:     0.468   0.727   4.994   0.000   6.189
  In             24   up:     0.467   0.727   4.994   0.000   6.189     0.622       -0.000
                 24   dn:     0.468   0.727   4.994   0.000   6.189
  In             25   up:     0.442   0.720   4.995   0.000   6.157     0.687       -0.000
                 25   dn:     0.442   0.720   4.995   0.000   6.157
  In             26   up:     0.467   0.727   4.994   0.000   6.189     0.622       -0.000
                 26   dn:     0.468   0.727   4.994   0.000   6.189
  In             27   up:     0.467   0.727   4.994   0.000   6.189     0.622       -0.000
                 27   dn:     0.468   0.727   4.994   0.000   6.189
  In             28   up:     0.450   0.717   4.995   0.000   6.162     0.676        0.000
                 28   dn:     0.450   0.717   4.995   0.000   6.162
  In             29   up:     0.468   0.718   4.995   0.000   6.181     0.638        0.000
                 29   dn:     0.468   0.718   4.995   0.000   6.181
  In             30   up:     0.468   0.718   4.995   0.000   6.181     0.638        0.000
                 30   dn:     0.468   0.718   4.995   0.000   6.181
  In             31   up:     0.468   0.718   4.995   0.000   6.181     0.638        0.000
                 31   dn:     0.468   0.718   4.995   0.000   6.181
==============================================================================================

                 Bond                   Population        Spin       Length (A)
================================================================================
              P 30 -- In 13                  0.65         0.00          2.55277
              P 31 -- In 21                  0.65         0.00          2.55277
              P 29 -- In 25                  0.65         0.00          2.55277
              P 12 -- In 21                  0.66         0.00          2.55461
              P 8  -- In 25                  0.66         0.00          2.55461
              P 20 -- In 13                  0.66        -0.00          2.55461
              P 32 -- In 1                   0.64        -0.00          2.55681
              P 9  -- In 16                  0.63         0.00          2.55898
              P 7  -- In 14                  0.63         0.00          2.55898
              P 6  -- In 23                  0.63         0.00          2.55898
              P 10 -- In 27                  0.63         0.00          2.55898
              P 17 -- In 24                  0.63         0.00          2.55898
              P 19 -- In 26                  0.63         0.00          2.55898
              P 18 -- In 1                   0.64        -0.00          2.55938
              P 11 -- In 1                   0.64         0.00          2.55938
              P 5  -- In 1                   0.64        -0.00          2.55938
              P 7  -- In 7                   0.66         0.00          2.56223
              P 9  -- In 11                  0.66         0.00          2.56223
              P 6  -- In 6                   0.66         0.00          2.56223
              P 10 -- In 12                  0.66         0.00          2.56223
              P 19 -- In 20                  0.66         0.00          2.56223
              P 17 -- In 18                  0.66         0.00          2.56223
              P 27 -- In 18                  0.66        -0.00          2.56231
              P 21 -- In 20                  0.66        -0.00          2.56232
              P 15 -- In 6                   0.66        -0.00          2.56232
              P 13 -- In 12                  0.66        -0.00          2.56232
              P 22 -- In 7                   0.66        -0.00          2.56232
              P 26 -- In 11                  0.66        -0.00          2.56232
              P 25 -- In 27                  0.71        -0.00          2.56245
              P 23 -- In 23                  0.71        -0.00          2.56245
              P 23 -- In 24                  0.71        -0.00          2.56245
              P 25 -- In 26                  0.71        -0.00          2.56245
              P 14 -- In 14                  0.71        -0.00          2.56245
              P 14 -- In 16                  0.71        -0.00          2.56245
              P 32 -- In 28                  0.65         0.00          2.56315
              P 32 -- In 22                  0.65        -0.00          2.56315
              P 32 -- In 15                  0.65         0.00          2.56315
              P 9  -- In 13                  0.65        -0.00          2.56384
              P 7  -- In 13                  0.65        -0.00          2.56384
              P 17 -- In 21                  0.65        -0.00          2.56384
              P 19 -- In 25                  0.65        -0.00          2.56384
              P 10 -- In 25                  0.65        -0.00          2.56384
              P 6  -- In 21                  0.65        -0.00          2.56384
              P 2  -- In 4                   0.65         0.00          2.56396
              P 2  -- In 2                   0.65         0.00          2.56396
              P 3  -- In 3                   0.65        -0.00          2.56396
              P 1  -- In 3                   0.65        -0.00          2.56396
              P 3  -- In 4                   0.65        -0.00          2.56396
              P 1  -- In 2                   0.65         0.00          2.56396
              P 5  -- In 6                   0.65         0.00          2.56450
              P 5  -- In 7                   0.65         0.00          2.56450
              P 11 -- In 12                  0.65         0.00          2.56450
              P 11 -- In 11                  0.65         0.00          2.56450
              P 18 -- In 20                  0.65         0.00          2.56450
              P 18 -- In 18                  0.65         0.00          2.56450
              P 12 -- In 2                   0.66        -0.00          2.56469
              P 8  -- In 4                   0.66        -0.00          2.56469
              P 20 -- In 3                   0.66        -0.00          2.56469
              P 26 -- In 28                  0.64        -0.00          2.56488
              P 22 -- In 22                  0.64        -0.00          2.56488
              P 21 -- In 22                  0.64         0.00          2.56488
              P 27 -- In 28                  0.64        -0.00          2.56488
              P 15 -- In 15                  0.64        -0.00          2.56488
              P 13 -- In 15                  0.64        -0.00          2.56488
              P 30 -- In 15                  0.66        -0.00          2.56538
              P 29 -- In 28                  0.66        -0.00          2.56538
              P 31 -- In 22                  0.66         0.00          2.56538
              P 31 -- In 31                  0.64        -0.00          2.56737
              P 29 -- In 29                  0.64        -0.00          2.56737
              P 30 -- In 31                  0.64         0.00          2.56737
              P 30 -- In 29                  0.64        -0.00          2.56737
              P 31 -- In 30                  0.64         0.00          2.56737
              P 29 -- In 30                  0.64         0.00          2.56737
              P 20 -- In 26                  0.64         0.00          2.56947
              P 20 -- In 24                  0.64         0.00          2.56947
              P 8  -- In 14                  0.64         0.00          2.56947
              P 12 -- In 16                  0.64         0.00          2.56947
              P 8  -- In 23                  0.64         0.00          2.56947
              P 12 -- In 27                  0.64         0.00          2.56947
              P 24 -- In 7                   0.64        -0.00          2.56962
              P 28 -- In 11                  0.64        -0.00          2.56962
              P 28 -- In 18                  0.64        -0.00          2.56962
              P 24 -- In 20                  0.64        -0.00          2.56962
              P 16 -- In 12                  0.64        -0.00          2.56962
              P 16 -- In 6                   0.64        -0.00          2.56962
              P 11 -- In 2                   0.64         0.00          2.57209
              P 5  -- In 4                   0.64        -0.00          2.57209
              P 18 -- In 3                   0.64         0.00          2.57209
              P 27 -- In 17                  0.62        -0.00          2.57503
              P 15 -- In 5                   0.62         0.00          2.57503
              P 13 -- In 9                   0.62         0.00          2.57503
              P 26 -- In 9                   0.62        -0.00          2.57503
              P 22 -- In 5                   0.62        -0.00          2.57503
              P 21 -- In 17                  0.62        -0.00          2.57503
              P 19 -- In 19                  0.64        -0.00          2.58019
              P 10 -- In 10                  0.64        -0.00          2.58019
              P 6  -- In 8                   0.64        -0.00          2.58019
              P 9  -- In 10                  0.64        -0.00          2.58019
              P 7  -- In 8                   0.64        -0.00          2.58019
              P 17 -- In 19                  0.64        -0.00          2.58019
              P 21 -- In 23                  0.63         0.00          2.58037
              P 15 -- In 16                  0.63         0.00          2.58037
              P 13 -- In 14                  0.63         0.00          2.58037
              P 27 -- In 27                  0.63         0.00          2.58037
              P 26 -- In 26                  0.63         0.00          2.58037
              P 22 -- In 24                  0.63         0.00          2.58037
              P 24 -- In 9                   0.60        -0.00          2.59164
              P 28 -- In 5                   0.60         0.00          2.59164
              P 16 -- In 17                  0.60         0.00          2.59164
              P 2  -- In 17                  0.61         0.00          2.59876
              P 1  -- In 5                   0.61         0.00          2.59876
              P 3  -- In 9                   0.61         0.00          2.59876
              P 23 -- In 29                  0.70         0.00          2.60086
              P 25 -- In 31                  0.70         0.00          2.60086
              P 14 -- In 30                  0.70         0.00          2.60086
              P 28 -- In 31                  0.60        -0.00          2.61554
              P 24 -- In 29                  0.60        -0.00          2.61554
              P 16 -- In 30                  0.60        -0.00          2.61554
              P 2  -- In 19                  0.58        -0.00          2.67775
              P 1  -- In 8                   0.58        -0.00          2.67775
              P 3  -- In 10                  0.58        -0.00          2.67775
              P 4  -- In 8                   0.49         0.00          2.79044
              P 4  -- In 10                  0.49         0.00          2.79044
              P 4  -- In 19                  0.49         0.00          2.79046
================================================================================

 Hirshfeld supercell size:           2           2           2
Standard grid dimensions: 240 240 240
Fine grid dimensions:     240 240 240


     Hirshfeld Analysis
     ------------------
Species   Ion     Hirshfeld Charge (e)  Spin (hbar/2)
===================================================
  P        1                -0.23        0.00
  P        2                -0.23        0.00
  P        3                -0.23        0.00
  P        4                -0.10        0.00
  P        5                -0.23        0.00
  P        6                -0.24        0.00
  P        7                -0.24        0.00
  P        8                -0.24       -0.00
  P        9                -0.24        0.00
  P       10                -0.24        0.00
  P       11                -0.23        0.00
  P       12                -0.24       -0.00
  P       13                -0.23        0.00
  P       14                -0.18        0.00
  P       15                -0.23        0.00
  P       16                -0.23        0.00
  P       17                -0.24        0.00
  P       18                -0.23        0.00
  P       19                -0.24        0.00
  P       20                -0.24       -0.00
  P       21                -0.23        0.00
  P       22                -0.23        0.00
  P       23                -0.18        0.00
  P       24                -0.23        0.00
  P       25                -0.18        0.00
  P       26                -0.23        0.00
  P       27                -0.23        0.00
  P       28                -0.23        0.00
  P       29                -0.24       -0.00
  P       30                -0.24       -0.00
  P       31                -0.24       -0.00
  P       32                -0.23        0.00
  In       1                 0.24        0.00
  In       2                 0.23       -0.00
  In       3                 0.23       -0.00
  In       4                 0.23       -0.00
  In       5                 0.24        0.00
  In       6                 0.24        0.00
  In       7                 0.24        0.00
  In       8                 0.22        0.00
  In       9                 0.24        0.00
  In      10                 0.22        0.00
  In      11                 0.24        0.00
  In      12                 0.24        0.00
  In      13                 0.23       -0.00
  In      14                 0.22        0.00
  In      15                 0.24        0.00
  In      16                 0.22        0.00
  In      17                 0.24        0.00
  In      18                 0.24        0.00
  In      19                 0.22        0.00
  In      20                 0.24        0.00
  In      21                 0.23       -0.00
  In      22                 0.24        0.00
  In      23                 0.22        0.00
  In      24                 0.22        0.00
  In      25                 0.23       -0.00
  In      26                 0.22        0.00
  In      27                 0.22        0.00
  In      28                 0.24        0.00
  In      29                 0.23        0.00
  In      30                 0.23        0.00
  In      31                 0.23        0.00
===================================================

 
 A BibTeX formatted list of references used in this run has been written to 
 In_Vacancy_Migration_3->60_Singlepoints_3.bib
 
Initialisation time =     31.66 s
Calculation time    =   8760.02 s
Finalisation time   =    155.89 s
Total time          =   8947.57 s
Peak Memory Use     = 9586024 kB
 
Overall parallel efficiency rating: Terrible (33%)
 
Data was distributed by:-
G-vector (3-way); efficiency rating: Poor (36%)
k-point (36-way); efficiency rating: Very good (80%)
