 +-------------------------------------------------+
 |                                                 |
 |      CCC   AA    SSS  TTTTT  EEEEE  PPPP        |
 |     C     A  A  S       T    E      P   P       |
 |     C     AAAA   SS     T    EEE    PPPP        |
 |     C     A  A     S    T    E      P           |
 |      CCC  A  A  SSS     T    EEEEE  P           |
 |                                                 |
 +-------------------------------------------------+
 |                                                 |
 | Welcome to Academic Release CASTEP version 22.11|
 | Ab Initio Total Energy Program                  |
 |                                                 |
 | Authors:                                        |
 | M. Segall, M. Probert, C. Pickard, P. Hasnip,   |
 | S. Clark, K. Refson, J. R. Yates, M. Payne      |
 |                                                 |
 | Contributors:                                   |
 | P. Lindan, P. Haynes, J. White, V. Milman,      |
 | N. Govind, M. Gibson, P. Tulip, V. Cocula,      |
 | B. Montanari, D. Quigley, M. Glover,            |
 | L. Bernasconi, A. Perlov, M. Plummer,           |
 | E. McNellis, J. Meyer, J. Gale, D. Jochym       |
 | J. Aarons, B. Walker, R. Gillen, D. Jones       |
 | T. Green, I. J. Bush, C. J. Armstrong,          |
 | E. J. Higgins, E. L. Brown, M. S. McFly,        |
 | J. Wilkins, B-C. Shih, P. J. P. Byrne,          |
 | R. J. Maurer, J. C. Womack, J. Dziedzic,        |
 | A. Bartok-Partay, L. LeBlanc, T. K. Stenczel,   |
 | J. Kermode, S. Sturniolo, B. Shi, B. Durham     |
 | M. Evans, M. J. Smith                           |
 |                                                 |
 | Copyright (c) 2000 - 2021                       |
 |                                                 |
 |     Distributed under license from Cambridge    |
 |     Enterprise for academic use only.           |
 |                                                 |
 | Please cite                                     |
 |                                                 |
 |     "First principles methods using CASTEP"     |
 |                                                 |
 |         Zeitschrift fuer Kristallographie       |
 |           220(5-6) pp. 567-570 (2005)           |
 |                                                 |
 | S. J. Clark, M. D. Segall, C. J. Pickard,       |
 | P. J. Hasnip, M. J. Probert, K. Refson,         |
 | M. C. Payne                                     |
 |                                                 |
 |       in all publications arising from          |
 |              your use of CASTEP                 |
 |                                                 |
 +-------------------------------------------------+
 |                                                 |
 |              http://www.castep.org              |
 |                                                 |
 +-------------------------------------------------+



 Compiled for linux_x86_64_gfortran10 on Wed, 18 Jan 2023 22:58:45 +0000
 from code version b807d1bba+  Castep221_branch  Wed Sep 14 11:18:35 2022 +0100
 Compiler: GNU Fortran 10.2.0; Optimisation: fast
 MATHLIBS: openblas (LAPACK version 3.9.0)
 FFT Lib : fftw3 version fftw-3.3.8-sse2-avx-avx2-avx2_128
 Fundamental constants values: CODATA 2014

 Run started: Tue, 25 Mar 2025 17:14:02 +0000

 Atomic calculation performed for P: 1s2 2s2 2p6 3s2 3p3

 Converged in 47 iterations to an ae energy of -9309.074 eV

   ============================================================                
   | Pseudopotential Report - Date of generation 25-03-2025   |                
   ------------------------------------------------------------                
   | Element: P Ionic charge:  5.00 Level of theory: RSCAN    |                
   | Atomic Solver: Koelling-Harmon                           |                
   |                                                          |                
   |               Reference Electronic Structure             |                
   |         Orbital         Occupation         Energy        |                
   |            3s              2.000           -0.535        |                
   |            3p              3.000           -0.209        |                
   |                                                          |                
   |                 Pseudopotential Definition               |                
   |        Beta     l      e      Rc     scheme   norm       |                
   |          1      0   -0.535   1.807     qc      0         |                
   |          2      0    0.250   1.807     qc      0         |                
   |          3      1   -0.209   1.807     qc      0         |                
   |          4      1    0.250   1.807     qc      0         |                
   |          5      2    0.000   1.807     qc      0         |                
   |          6      2    0.250   1.807     qc      0         |                
   |         loc     3    0.000   1.807     pn      0         |                
   |                                                          |                
   | Augmentation charge Rinner = 1.263                       |                
   | Partial core correction Rc = 1.263                       |                
   ------------------------------------------------------------                
   | "3|1.8|4|4|5|30:31:32"                                   |                
   ------------------------------------------------------------                
   |      Author: Chris J. Pickard, Cambridge University      |                
   ============================================================                
 Warning: otfg_output_psp cannot write out meta-GGA pseudopotentials presently.

 Atomic calculation performed for In:
 1s2 2s2 2p6 3s2 3p6 3d10 4s2 4p6 4d10 5s2 5p1

 Converged in 84 iterations to an ae energy of -160093.327 eV

   ============================================================                
   | Pseudopotential Report - Date of generation 25-03-2025   |                
   ------------------------------------------------------------                
   | Element: In Ionic charge: 13.00 Level of theory: RSCAN   |                
   | Atomic Solver: Koelling-Harmon                           |                
   |                                                          |                
   |               Reference Electronic Structure             |                
   |         Orbital         Occupation         Energy        |                
   |            4d             10.000           -0.711        |                
   |            5s              2.000           -0.313        |                
   |            5p              1.000           -0.095        |                
   |                                                          |                
   |                 Pseudopotential Definition               |                
   |        Beta     l      e      Rc     scheme   norm       |                
   |          1      0   -0.313   2.501     qc      0         |                
   |          2      0    0.250   2.501     qc      0         |                
   |          3      1   -0.095   2.501     qc      0         |                
   |          4      1    0.250   2.501     qc      0         |                
   |          5      2   -0.711   2.207     qc      0         |                
   |          6      2    0.250   2.207     qc      0         |                
   |         loc     3    0.000   2.501     pn      0         |                
   |                                                          |                
   | Augmentation charge Rinner = 1.504                       |                
   | Partial core correction Rc = 1.504                       |                
   ------------------------------------------------------------                
   | "3|2.5|2.5|1.5|7|8|9|50:51:42U2.2U2.2"                   |                
   ------------------------------------------------------------                
   |      Author: Chris J. Pickard, Cambridge University      |                
   ============================================================                
 Warning: otfg_output_psp cannot write out meta-GGA pseudopotentials presently.

 Pseudo atomic calculation performed for P 3s2 3p3

 Converged in 23 iterations to a total energy of -208.0292 eV

 Pseudo atomic calculation performed for In 4d10 5s2 5p1

 Converged in 42 iterations to a total energy of -1747.4501 eV
 Calculation parallelised over 56 processes.
 Data is distributed by k-point(56-way)

 ************************************ Title ************************************
 

 ***************************** General Parameters ******************************
  
 output verbosity                               : normal  (1)
 write checkpoint data to                       : Bulk_Elastic_1.check
 type of calculation                            : geometry optimization
 stress calculation                             : on
 density difference calculation                 : off
 electron localisation func (ELF) calculation   : off
 Hirshfeld analysis                             : on
 polarisation (Berry phase) analysis            : off
 molecular orbital projected DOS                : off
 deltaSCF calculation                           : off
 unlimited duration calculation
 timing information                             : on
 memory usage estimate                          : on
 write extra output files                       : on
 write final potential to formatted file        : off
 write final density to formatted file          : off
 write BibTeX reference list                    : on
 write OTFG pseudopotential files               : on
 write electrostatic potential file             : on
 write bands file                               : on
 checkpoint writing                             : off
  
 output         length unit                     : A
 output           mass unit                     : amu
 output           time unit                     : ps
 output         charge unit                     : e
 output           spin unit                     : hbar/2
 output         energy unit                     : eV
 output          force unit                     : eV/A
 output       velocity unit                     : A/ps
 output       pressure unit                     : GPa
 output     inv_length unit                     : 1/A
 output      frequency unit                     : cm-1
 output force constant unit                     : eV/A**2
 output         volume unit                     : A**3
 output   IR intensity unit                     : (D/A)**2/amu
 output         dipole unit                     : D
 output         efield unit                     : eV/A/e
 output        entropy unit                     : J/mol/K
 output    efield chi2 unit                     : pm/V
  
 wavefunctions paging                           : none
 random number generator seed                   : randomised (171402869)
 data distribution                              : optimal for this architecture
 optimization strategy                          : balance speed and memory

 *********************** Exchange-Correlation Parameters ***********************
  
 using functional                               : RSCAN
 relativistic treatment                         : Koelling-Harmon
 DFT+D: Semi-empirical dispersion correction    : off

 ************************* Pseudopotential Parameters **************************
  
 pseudopotential representation                 : reciprocal space
 <beta|phi> representation                      : reciprocal space
 spin-orbit coupling                            : off

 **************************** Basis Set Parameters *****************************
  
 plane wave basis set cut-off                   :   900.0000   eV
 size of standard grid                          :     2.0000
 size of   fine   gmax                          :    30.7390   1/A
 finite basis set correction                    : none

 **************************** Electronic Parameters ****************************
  
 number of  electrons                           :  72.00    
 net charge of system                           :  0.000    
 treating system as non-spin-polarized
 number of bands                                :         43

 ********************* Electronic Minimization Parameters **********************
  
 Method: Treating system as metallic with density mixing treatment of electrons,
         and number of  SD  steps               :          1
         and number of  CG  steps               :          4
  
 total energy / atom convergence tol.           : 0.1000E-07   eV
 eigen-energy convergence tolerance             : 0.2222E-08   eV
 max force / atom convergence tol.              : ignored
 convergence tolerance window                   :          3   cycles
 max. number of SCF cycles                      :         50
 number of fixed-spin iterations                :         10
 smearing scheme                                : Gaussian
 smearing width                                 : 0.2000       eV
 Fermi energy convergence tolerance             : 0.2721E-13   eV
 periodic dipole correction                     : NONE

 ************************** Density Mixing Parameters **************************
  
 density-mixing scheme                          : Pulay
 max. length of mixing history                  :         15
 charge density mixing amplitude                : 0.5000    
 cut-off energy for mixing                      :  900.0       eV

 *********************** Population Analysis Parameters ************************
  
 Population analysis with cutoff                :  3.000       A
 Population analysis output                     : summary and pdos components

 ********************** Geometry Optimization Parameters ***********************
  
 optimization method                            : LBFGS
 max. no. of LBFGS updates                      : unbounded
 preconditioned LBFGS is activated
 preconditioner type                            : EXP
     stabilization constant                     :     0.1000
     parameter A                                :     3.0000
     nearest neighbor distance                  : automatic
     cut-off distance                           : automatic
     parameter mu                               : automatic
 variable cell method                           : fixed basis quality
 max. number of steps                           :         30
 estimated bulk modulus                         :  500.0       GPa
 estimated <frequency>                          :  1668.       cm-1
 geom line minimiser                            : on
 with line minimiser tolerance                  :     0.4000
 total energy convergence tolerance             : 0.2000E-04   eV/atom
        max ionic |force| tolerance             : 0.1000E-02   eV/A
 max ionic |displacement| tolerance             : 0.1000E-02   A
   max |stress component| tolerance             : 0.1000       GPa
 convergence tolerance window                   :          2   steps
 backup results every                           :          5   steps
 write geom trajectory file                     : on

 *******************************************************************************
  

                           -------------------------------
                                      Unit Cell
                           -------------------------------
        Real Lattice(A)                      Reciprocal Lattice(1/A)
     5.8925800    -0.0000040    -0.0000040        1.066287655   0.000000723   0.000000723
    -0.0000040     5.9008410    -0.0041340        0.000000723   1.064795406   0.000745972
    -0.0000040    -0.0041340     5.9008410        0.000000723   0.000745972   1.064795406

                       Lattice parameters(A)       Cell Angles
                    a =      5.892580          alpha =   90.080280
                    b =      5.900842          beta  =   90.000078
                    c =      5.900842          gamma =   90.000078

                       Current cell volume =           205.179090       A**3
                                   density =             2.842234   AMU/A**3
                                           =             4.719641     g/cm^3

                           -------------------------------
                                     Cell Contents
                           -------------------------------
                         Total number of ions in cell =    8
                      Total number of species in cell =    2
                        Max number of any one species =    4

            xxxxxxxxxxxxxxxxxxxxxxxxxxxxxxxxxxxxxxxxxxxxxxxxxxxxxxxxxxxx
            x  Element    Atom        Fractional coordinates of atoms  x
            x            Number           u          v          w      x
            x----------------------------------------------------------x
            x  P            1         0.250000   0.250000   0.750000   x 
            x  P            2         0.750000   0.250000   0.250000   x 
            x  P            3         0.250000   0.750000   0.250000   x 
            x  P            4         0.750000   0.750000   0.750000   x 
            x  In           1         0.000000   0.000000   0.000000   x 
            x  In           2         0.500000   0.000000   0.500000   x 
            x  In           3        -0.000000   0.500000   0.500000   x 
            x  In           4         0.500000   0.500000   0.000000   x 
            xxxxxxxxxxxxxxxxxxxxxxxxxxxxxxxxxxxxxxxxxxxxxxxxxxxxxxxxxxxx


                         No user defined ionic velocities

                           -------------------------------
                                   Details of Species
                           -------------------------------

                               Mass of species in AMU
                                    P   30.9737600
                                    In  114.8180000

                          Electric Quadrupole Moment (Barn)
                                    P    1.0000000 No Isotope Defined
                                    In    0.7700000 Isotope115

                          Files used for pseudopotentials:
                                    P 3|1.8|4|4|5|30:31:32
                                    In 3|2.5|2.5|1.5|7|8|9|50:51:42U2.2U2.2

                           -------------------------------
                              k-Points For BZ Sampling
                           -------------------------------
                       MP grid size for SCF calculation is  6  6  6
                            with an offset of   0.083  0.083  0.083
                       Number of kpoints used =           112

                           -------------------------------
                               Symmetry and Constraints
                           -------------------------------

                      Cell is a supercell containing 4 primitive cells
                      Maximum deviation from symmetry =  0.00000         ANG

                      Number of symmetry operations   =           1
                      Number of ionic constraints     =           3
                      Point group of crystal =     1: C1, 1, 1
                      Space group of crystal =    44: Imm2, I 2 -2

             Set iprint > 1 for details on symmetry rotations/translations

                         Centre of mass is constrained
             Set iprint > 1 for details of linear ionic constraints

                         Number of cell constraints= 6
                         Cell constraints are:  0 0 0 0 0 0

                         External pressure/stress (GPa)
                          0.00000   0.00000   0.00000
                                    0.00000   0.00000
                                              0.00000
 
+---------------- MEMORY AND SCRATCH DISK ESTIMATES PER PROCESS --------------+
|                                                     Memory          Disk    |
| Baseline code, static data and system overhead      708.0 MB         0.0 MB |
| BLAS internal memory storage                          0.0 MB         0.0 MB |
| Model and support data                             1412.3 MB         0.0 MB |
| Electronic energy minimisation requirements         110.2 MB         0.0 MB |
| Force calculation requirements                       31.3 MB         0.0 MB |
| Stress calculation requirements                      34.6 MB         0.0 MB |
|                                               ----------------------------- |
| Approx. total storage required per process         2230.5 MB         0.0 MB |
|                                                                             |
| Requirements will fluctuate during execution and may exceed these estimates |
+-----------------------------------------------------------------------------+
Calculating approximate eigenstates for fixed initial Hamiltonian
Cut-off for approx. calculation is   89.988 eV
Improving approx. states at cut-off of  450.000 eV
Resetting cut-off to  900.000 eV
Calculating total energy with cut-off of  900.000 eV.
------------------------------------------------------------------------ <-- SCF
SCF loop      Energy           Fermi           Energy gain       Timer   <-- SCF
                               energy          per atom          (sec)   <-- SCF
------------------------------------------------------------------------ <-- SCF
Initial  -7.87868328E+003  0.00000000E+000                        35.34  <-- SCF
      1  -7.85061763E+003  2.59743727E+000  -3.50820624E+000      45.87  <-- SCF
      2  -7.85063488E+003  2.59737813E+000   2.15636056E-003      54.99  <-- SCF
      3  -7.85904468E+003  2.89364450E+000   1.05122534E+000      66.91  <-- SCF
      4  -7.86052762E+003  2.96774849E+000   1.85367562E-001      80.23  <-- SCF
      5  -7.85970710E+003  3.32579820E+000  -1.02566080E-001      92.24  <-- SCF
      6  -7.85976711E+003  3.37857880E+000   7.50239346E-003     104.04  <-- SCF
      7  -7.85971238E+003  3.41587132E+000  -6.84157771E-003     116.30  <-- SCF
      8  -7.85992258E+003  3.48179229E+000   2.62742078E-002     128.10  <-- SCF
      9  -7.85993056E+003  3.44508276E+000   9.97547254E-004     140.31  <-- SCF
     10  -7.85993289E+003  3.43526778E+000   2.91573241E-004     152.57  <-- SCF
     11  -7.85993288E+003  3.43790012E+000  -1.05964331E-006     164.95  <-- SCF
     12  -7.85993293E+003  3.43535272E+000   6.64403852E-006     177.33  <-- SCF
     13  -7.85993294E+003  3.43533757E+000   1.12475942E-006     188.55  <-- SCF
     14  -7.85993294E+003  3.43515050E+000   3.31848330E-007     199.53  <-- SCF
     15  -7.85993294E+003  3.43526325E+000  -7.37740638E-009     208.97  <-- SCF
     16  -7.85993294E+003  3.43528915E+000  -2.49535609E-009     218.34  <-- SCF
------------------------------------------------------------------------ <-- SCF
 
Final energy, E             =  -7859.932941293     eV
Final free energy (E-TS)    =  -7859.932944757     eV
(energies not corrected for finite basis set)
 
NB est. 0K energy (E-0.5TS)      =  -7859.932943025     eV
 
 
+---------------- MEMORY AND SCRATCH DISK ESTIMATES PER PROCESS --------------+
|                                                     Memory          Disk    |
| Model and support data                              838.1 MB         0.0 MB |
| Electronic energy minimisation requirements         110.2 MB         0.0 MB |
| Geometry minimisation requirements                  130.4 MB         0.0 MB |
|                                               ----------------------------- |
| Approx. total storage required per process         1078.6 MB         0.0 MB |
|                                                                             |
| Requirements will fluctuate during execution and may exceed these estimates |
+-----------------------------------------------------------------------------+
 

 ************************************** Forces **************************************
 *                                                                                  *
 *                           Cartesian components (eV/A)                            *
 * -------------------------------------------------------------------------------- *
 *                         x                    y                    z              *
 *                                                                                  *
 * P               1     -0.01077             -0.00000             -0.00001         *
 * P               2     -0.01078             -0.00002             -0.00001         *
 * P               3     -0.01077             -0.00001             -0.00000         *
 * P               4     -0.01077             -0.00001             -0.00001         *
 * In              1      0.01077              0.00001              0.00001         *
 * In              2      0.01077              0.00001              0.00000         *
 * In              3      0.01078              0.00001              0.00001         *
 * In              4      0.01077              0.00000              0.00001         *
 *                                                                                  *
 ************************************************************************************
 EXP precond LBFGS => estimated nearest neighbor distance :  2.553       A
 EXP precond LBFGS => estimated cutoff distance :  5.106       A

 ************************************** Forces **************************************
 *                                                                                  *
 *                           Cartesian components (eV/A)                            *
 * -------------------------------------------------------------------------------- *
 *                         x                    y                    z              *
 *                                                                                  *
 * P               1     -0.01077             -0.00000             -0.00001         *
 * P               2     -0.01078             -0.00002             -0.00001         *
 * P               3     -0.01077             -0.00001             -0.00000         *
 * P               4     -0.01077             -0.00001             -0.00001         *
 * In              1      0.01077              0.00001              0.00001         *
 * In              2      0.01077              0.00001              0.00000         *
 * In              3      0.01078              0.00001              0.00001         *
 * In              4      0.01077              0.00000              0.00001         *
 *                                                                                  *
 ************************************************************************************
 doing test perturbation to get energy scale for EXP preconditioner

                           -------------------------------
                                     Cell Contents
                           -------------------------------

            xxxxxxxxxxxxxxxxxxxxxxxxxxxxxxxxxxxxxxxxxxxxxxxxxxxxxxxxxxxxxxxxx
            x  Element         Atom        Fractional coordinates of atoms  x
            x                 Number           u          v          w      x
            x---------------------------------------------------------------x
            x  P                 1         0.251072   0.251415   0.753640   x
            x  P                 2         0.752953   0.251415   0.251415   x
            x  P                 3         0.251072   0.753640   0.251415   x
            x  P                 4         0.752953   0.753641   0.753641   x
            x  In                1         0.000000   0.000000   0.000000   x
            x  In                2         0.502077  -0.000000   0.502675   x
            x  In                3         1.003645   0.502675   0.502675   x
            x  In                4         0.502077   0.502675  -0.000000   x
            xxxxxxxxxxxxxxxxxxxxxxxxxxxxxxxxxxxxxxxxxxxxxxxxxxxxxxxxxxxxxxxxx


------------------------------------------------------------------------ <-- SCF
SCF loop      Energy           Fermi           Energy gain       Timer   <-- SCF
                               energy          per atom          (sec)   <-- SCF
------------------------------------------------------------------------ <-- SCF
Initial  -7.85968014E+003  0.00000000E+000                       236.29  <-- SCF
      1  -7.85989292E+003  3.43659040E+000   2.65979113E-002     245.88  <-- SCF
      2  -7.85992437E+003  3.43650572E+000   3.93025682E-003     260.32  <-- SCF
      3  -7.85992455E+003  3.43655709E+000   2.31471748E-005     272.94  <-- SCF
      4  -7.85992477E+003  3.43661201E+000   2.72312015E-005     285.68  <-- SCF
      5  -7.85992481E+003  3.43659369E+000   4.86050683E-006     299.19  <-- SCF
      6  -7.85992481E+003  3.43658965E+000   7.64843848E-007     311.92  <-- SCF
      7  -7.85992481E+003  3.43659255E+000   5.38148888E-008     323.16  <-- SCF
      8  -7.85992481E+003  3.43659135E+000   7.60149733E-009     332.86  <-- SCF
      9  -7.85992481E+003  3.43659040E+000   7.99496158E-010     342.23  <-- SCF
------------------------------------------------------------------------ <-- SCF
 
Final energy, E             =  -7859.924810309     eV
Final free energy (E-TS)    =  -7859.924813958     eV
(energies not corrected for finite basis set)
 
NB est. 0K energy (E-0.5TS)      =  -7859.924812133     eV
 

 ************************************** Forces **************************************
 *                                                                                  *
 *                           Cartesian components (eV/A)                            *
 * -------------------------------------------------------------------------------- *
 *                         x                    y                    z              *
 *                                                                                  *
 * P               1      0.05183             -0.01186             -0.09398         *
 * P               2     -0.07588              0.05963              0.05963         *
 * P               3      0.05183             -0.09398             -0.01186         *
 * P               4     -0.08740             -0.17662             -0.17662         *
 * In              1      0.10766              0.16901              0.16901         *
 * In              2      0.00217              0.15789             -0.05186         *
 * In              3     -0.05237             -0.05222             -0.05222         *
 * In              4      0.00217             -0.05186              0.15789         *
 *                                                                                  *
 ************************************************************************************
 EXP precond LBFGS => estimated parameter mu :  2.301       eV/A**2
 LBFGS: finished iteration     0 with enthalpy= -7.85993294E+003 eV
  
 +-----------+-----------------+-----------------+------------+-----+ <-- LBFGS
 | Parameter |      value      |    tolerance    |    units   | OK? | <-- LBFGS
 +-----------+-----------------+-----------------+------------+-----+ <-- LBFGS
 |  dE/ion   |   0.000000E+000 |   2.000000E-005 |         eV | No  | <-- LBFGS
 |  |F|max   |   2.646258E-001 |   1.000000E-003 |       eV/A | No  | <-- LBFGS
 |  |dR|max  |   9.954455E-016 |   1.000000E-003 |          A | No  | <-- LBFGS
 +-----------+-----------------+-----------------+------------+-----+ <-- LBFGS
  

================================================================================
 Starting LBFGS iteration          1 ...
================================================================================
  
 +------------+-------------+-------------+-----------------+ <-- min LBFGS
 |    Step    |   lambda    |   F.delta'  |    enthalpy     | <-- min LBFGS
 +------------+-------------+-------------+-----------------+ <-- min LBFGS
 |  previous  |    0.000000 |    0.006598 |    -7859.932945 | <-- min LBFGS
 +------------+-------------+-------------+-----------------+ <-- min LBFGS
  

--------------------------------------------------------------------------------
 LBFGS: starting iteration         1 with trial guess (lambda=  1.000000)
--------------------------------------------------------------------------------

                           -------------------------------
                                     Cell Contents
                           -------------------------------

            xxxxxxxxxxxxxxxxxxxxxxxxxxxxxxxxxxxxxxxxxxxxxxxxxxxxxxxxxxxxxxxxx
            x  Element         Atom        Fractional coordinates of atoms  x
            x                 Number           u          v          w      x
            x---------------------------------------------------------------x
            x  P                 1         0.249902   0.250000   0.750000   x
            x  P                 2         0.749902   0.250000   0.250000   x
            x  P                 3         0.249902   0.750000   0.250000   x
            x  P                 4         0.749902   0.750000   0.750000   x
            x  In                1         0.000098   0.000000   0.000000   x
            x  In                2         0.500098   0.000000   0.500000   x
            x  In                3         0.000098   0.500000   0.500000   x
            x  In                4         0.500098   0.500000   0.000000   x
            xxxxxxxxxxxxxxxxxxxxxxxxxxxxxxxxxxxxxxxxxxxxxxxxxxxxxxxxxxxxxxxxx


------------------------------------------------------------------------ <-- SCF
SCF loop      Energy           Fermi           Energy gain       Timer   <-- SCF
                               energy          per atom          (sec)   <-- SCF
------------------------------------------------------------------------ <-- SCF
Initial  -7.85966673E+003  0.00000000E+000                       353.87  <-- SCF
      1  -7.85990171E+003  3.43528317E+000   2.93730037E-002     363.46  <-- SCF
      2  -7.85993259E+003  3.43518385E+000   3.85941874E-003     377.85  <-- SCF
      3  -7.85993273E+003  3.43525563E+000   1.73892793E-005     390.45  <-- SCF
      4  -7.85993293E+003  3.43532911E+000   2.53524242E-005     403.14  <-- SCF
      5  -7.85993297E+003  3.43533137E+000   4.14105425E-006     416.53  <-- SCF
      6  -7.85993297E+003  3.43533699E+000   1.00464552E-006     429.13  <-- SCF
      7  -7.85993297E+003  3.43534137E+000   6.66977011E-008     440.68  <-- SCF
      8  -7.85993297E+003  3.43534241E+000   6.62006021E-009     450.14  <-- SCF
      9  -7.85993297E+003  3.43534244E+000   6.59511825E-010     459.60  <-- SCF
------------------------------------------------------------------------ <-- SCF
 
Final energy, E             =  -7859.932970473     eV
Final free energy (E-TS)    =  -7859.932973943     eV
(energies not corrected for finite basis set)
 
NB est. 0K energy (E-0.5TS)      =  -7859.932972208     eV
 

 ************************************** Forces **************************************
 *                                                                                  *
 *                           Cartesian components (eV/A)                            *
 * -------------------------------------------------------------------------------- *
 *                         x                    y                    z              *
 *                                                                                  *
 * P               1     -0.00167              0.00006              0.00005         *
 * P               2     -0.00169              0.00007              0.00007         *
 * P               3     -0.00168              0.00005              0.00006         *
 * P               4     -0.00169              0.00004              0.00004         *
 * In              1      0.00167             -0.00017             -0.00017         *
 * In              2      0.00170             -0.00016              0.00006         *
 * In              3      0.00166              0.00006              0.00006         *
 * In              4      0.00170              0.00006             -0.00016         *
 *                                                                                  *
 ************************************************************************************
  
 +------------+-------------+-------------+-----------------+ <-- min LBFGS
 |    Step    |   lambda    |   F.delta'  |    enthalpy     | <-- min LBFGS
 +------------+-------------+-------------+-----------------+ <-- min LBFGS
 |  previous  |    0.000000 |    0.006598 |    -7859.932945 | <-- min LBFGS
 | trial step |    1.000000 |    0.001031 |    -7859.932974 | <-- min LBFGS
 +------------+-------------+-------------+-----------------+ <-- min LBFGS
  
 LBFGS: finished iteration     1 with enthalpy= -7.85993297E+003 eV
  
 +-----------+-----------------+-----------------+------------+-----+ <-- LBFGS
 | Parameter |      value      |    tolerance    |    units   | OK? | <-- LBFGS
 +-----------+-----------------+-----------------+------------+-----+ <-- LBFGS
 |  dE/ion   |   3.648205E-006 |   2.000000E-005 |         eV | Yes | <-- LBFGS
 |  |F|max   |   1.713546E-003 |   1.000000E-003 |       eV/A | No  | <-- LBFGS
 |  |dR|max  |   5.790134E-004 |   1.000000E-003 |          A | Yes | <-- LBFGS
 +-----------+-----------------+-----------------+------------+-----+ <-- LBFGS
  

================================================================================
 Starting LBFGS iteration          2 ...
================================================================================
  
 +------------+-------------+-------------+-----------------+ <-- min LBFGS
 |    Step    |   lambda    |   F.delta'  |    enthalpy     | <-- min LBFGS
 +------------+-------------+-------------+-----------------+ <-- min LBFGS
 |  previous  |    0.000000 |    0.001033 |    -7859.932974 | <-- min LBFGS
 +------------+-------------+-------------+-----------------+ <-- min LBFGS
  

--------------------------------------------------------------------------------
 LBFGS: starting iteration         2 with trial guess (lambda=  1.000000)
--------------------------------------------------------------------------------

                           -------------------------------
                                     Cell Contents
                           -------------------------------

            xxxxxxxxxxxxxxxxxxxxxxxxxxxxxxxxxxxxxxxxxxxxxxxxxxxxxxxxxxxxxxxxx
            x  Element         Atom        Fractional coordinates of atoms  x
            x                 Number           u          v          w      x
            x---------------------------------------------------------------x
            x  P                 1         0.249884   0.250001   0.750000   x
            x  P                 2         0.749883   0.250001   0.250001   x
            x  P                 3         0.249884   0.750000   0.250001   x
            x  P                 4         0.749883   0.750000   0.750000   x
            x  In                1         0.000116  -0.000003  -0.000003   x
            x  In                2         0.500117  -0.000003   0.500002   x
            x  In                3         0.000116   0.500002   0.500002   x
            x  In                4         0.500117   0.500002  -0.000003   x
            xxxxxxxxxxxxxxxxxxxxxxxxxxxxxxxxxxxxxxxxxxxxxxxxxxxxxxxxxxxxxxxxx


------------------------------------------------------------------------ <-- SCF
SCF loop      Energy           Fermi           Energy gain       Timer   <-- SCF
                               energy          per atom          (sec)   <-- SCF
------------------------------------------------------------------------ <-- SCF
Initial  -7.85993295E+003  0.00000000E+000                       471.37  <-- SCF
      1  -7.85993297E+003  3.43535535E+000   3.60445718E-006     481.54  <-- SCF
      2  -7.85993297E+003  3.43535535E+000   1.01639454E-007     494.28  <-- SCF
      3  -7.85993297E+003  3.43535552E+000   1.60981983E-009     503.72  <-- SCF
      4  -7.85993297E+003  3.43535580E+000   9.32906641E-010     513.18  <-- SCF
------------------------------------------------------------------------ <-- SCF
 
Final energy, E             =  -7859.932971322     eV
Final free energy (E-TS)    =  -7859.932974792     eV
(energies not corrected for finite basis set)
 
NB est. 0K energy (E-0.5TS)      =  -7859.932973057     eV
 

 ************************************** Forces **************************************
 *                                                                                  *
 *                           Cartesian components (eV/A)                            *
 * -------------------------------------------------------------------------------- *
 *                         x                    y                    z              *
 *                                                                                  *
 * P               1      0.00004             -0.00006             -0.00005         *
 * P               2      0.00007             -0.00008             -0.00008         *
 * P               3      0.00004             -0.00005             -0.00006         *
 * P               4      0.00006             -0.00004             -0.00004         *
 * In              1     -0.00002              0.00028              0.00028         *
 * In              2     -0.00009              0.00027             -0.00016         *
 * In              3     -0.00001             -0.00016             -0.00016         *
 * In              4     -0.00009             -0.00016              0.00027         *
 *                                                                                  *
 ************************************************************************************
  
 +------------+-------------+-------------+-----------------+ <-- min LBFGS
 |    Step    |   lambda    |   F.delta'  |    enthalpy     | <-- min LBFGS
 +------------+-------------+-------------+-----------------+ <-- min LBFGS
 |  previous  |    0.000000 |    0.001033 |    -7859.932974 | <-- min LBFGS
 | trial step |    1.000000 |   -0.000051 |    -7859.932975 | <-- min LBFGS
 +------------+-------------+-------------+-----------------+ <-- min LBFGS
  
 LBFGS: finished iteration     2 with enthalpy= -7.85993297E+003 eV
  
 +-----------+-----------------+-----------------+------------+-----+ <-- LBFGS
 | Parameter |      value      |    tolerance    |    units   | OK? | <-- LBFGS
 +-----------+-----------------+-----------------+------------+-----+ <-- LBFGS
 |  dE/ion   |   1.062031E-007 |   2.000000E-005 |         eV | Yes | <-- LBFGS
 |  |F|max   |   3.971088E-004 |   1.000000E-003 |       eV/A | Yes | <-- LBFGS
 |  |dR|max  |   1.111525E-004 |   1.000000E-003 |          A | Yes | <-- LBFGS
 +-----------+-----------------+-----------------+------------+-----+ <-- LBFGS
  
 LBFGS: Geometry optimization completed successfully.

================================================================================
 LBFGS: Final Configuration:
================================================================================

                           -------------------------------
                                     Cell Contents
                           -------------------------------

            xxxxxxxxxxxxxxxxxxxxxxxxxxxxxxxxxxxxxxxxxxxxxxxxxxxxxxxxxxxxxxxxx
            x  Element         Atom        Fractional coordinates of atoms  x
            x                 Number           u          v          w      x
            x---------------------------------------------------------------x
            x  P                 1         0.249884   0.250001   0.750000   x
            x  P                 2         0.749883   0.250001   0.250001   x
            x  P                 3         0.249884   0.750000   0.250001   x
            x  P                 4         0.749883   0.750000   0.750000   x
            x  In                1         0.000116  -0.000003  -0.000003   x
            x  In                2         0.500117  -0.000003   0.500002   x
            x  In                3         0.000116   0.500002   0.500002   x
            x  In                4         0.500117   0.500002  -0.000003   x
            xxxxxxxxxxxxxxxxxxxxxxxxxxxxxxxxxxxxxxxxxxxxxxxxxxxxxxxxxxxxxxxxx


 LBFGS: Final Enthalpy     = -7.85993297E+003 eV
 LBFGS: Final <frequency>  =     253.61143 cm-1

 ************************************** Forces **************************************
 *                                                                                  *
 *                           Cartesian components (eV/A)                            *
 * -------------------------------------------------------------------------------- *
 *                         x                    y                    z              *
 *                                                                                  *
 * P               1      0.00004             -0.00006             -0.00005         *
 * P               2      0.00007             -0.00008             -0.00008         *
 * P               3      0.00004             -0.00005             -0.00006         *
 * P               4      0.00006             -0.00004             -0.00004         *
 * In              1     -0.00002              0.00028              0.00028         *
 * In              2     -0.00009              0.00027             -0.00016         *
 * In              3     -0.00001             -0.00016             -0.00016         *
 * In              4     -0.00009             -0.00016              0.00027         *
 *                                                                                  *
 ************************************************************************************

 ***************** Stress Tensor *****************
 *                                               *
 *          Cartesian components (GPa)           *
 * --------------------------------------------- *
 *             x             y             z     *
 *                                               *
 *  x     -0.134967     -0.000235     -0.000235  *
 *  y     -0.000235     -0.072660     -0.065040  *
 *  z     -0.000235     -0.065040     -0.072660  *
 *                                               *
 *  Pressure:    0.0934                          *
 *                                               *
 *************************************************

 Pseudo atomic calculation performed for P 3s2 3p3

 Converged in 23 iterations to a total energy of -208.0292 eV

 Pseudo atomic calculation performed for In 4d10 5s2 5p1

 Converged in 42 iterations to a total energy of -1747.4501 eV
Charge spilling parameter for spin component 1 = 0.15%

            Orbital Populations       
     Ion    Atom   Orbital             Charge
  -------------------------------------------
      P     1      S                    1.735
      P     1      Px                   1.314
      P     1      Py                   1.314
      P     1      Pz                   1.314
      P     2      S                    1.735
      P     2      Px                   1.314
      P     2      Py                   1.314
      P     2      Pz                   1.314
      P     3      S                    1.735
      P     3      Px                   1.314
      P     3      Py                   1.314
      P     3      Pz                   1.314
      P     4      S                    1.735
      P     4      Px                   1.314
      P     4      Py                   1.314
      P     4      Pz                   1.314
     In     1      Dzz                  1.999
     In     1      Dzy                  1.997
     In     1      Dzx                  1.997
     In     1      Dxx-yy               1.999
     In     1      Dxy                  1.997
     In     1      S                    1.435
     In     1      Px                   0.482
     In     1      Py                   0.483
     In     1      Pz                   0.483
     In     1      S                   -0.548
     In     2      Dzz                  1.999
     In     2      Dzy                  1.997
     In     2      Dzx                  1.997
     In     2      Dxx-yy               1.999
     In     2      Dxy                  1.997
     In     2      S                    1.435
     In     2      Px                   0.482
     In     2      Py                   0.483
     In     2      Pz                   0.483
     In     2      S                   -0.548
     In     3      Dzz                  1.999
     In     3      Dzy                  1.997
     In     3      Dzx                  1.997
     In     3      Dxx-yy               1.999
     In     3      Dxy                  1.997
     In     3      S                    1.435
     In     3      Px                   0.482
     In     3      Py                   0.483
     In     3      Pz                   0.483
     In     3      S                   -0.548
     In     4      Dzz                  1.999
     In     4      Dzy                  1.997
     In     4      Dzx                  1.997
     In     4      Dxx-yy               1.999
     In     4      Dxy                  1.997
     In     4      S                    1.435
     In     4      Px                   0.482
     In     4      Py                   0.483
     In     4      Pz                   0.483
     In     4      S                   -0.548
  -------------------------------------------
                           Total:      72.000
  -------------------------------------------

     Atomic Populations (Mulliken)
     -----------------------------
Species          Ion     s       p       d       f      Total   Charge (e)
==========================================================================
  P               1     1.735   3.942   0.000   0.000   5.676    -0.676
  P               2     1.735   3.942   0.000   0.000   5.676    -0.676
  P               3     1.735   3.942   0.000   0.000   5.676    -0.676
  P               4     1.735   3.942   0.000   0.000   5.676    -0.676
  In              1     0.887   1.447   9.989   0.000  12.324     0.676
  In              2     0.887   1.447   9.989   0.000  12.324     0.676
  In              3     0.887   1.447   9.989   0.000  12.324     0.676
  In              4     0.887   1.447   9.989   0.000  12.324     0.676
==========================================================================

                 Bond                   Population      Length (A)
======================================================================
               P 4 -- In 1                   0.56        2.55352
               P 4 -- In 3                   0.56        2.55354
               P 1 -- In 4                   0.56        2.55354
               P 3 -- In 2                   0.56        2.55354
               P 2 -- In 3                   0.56        2.55355
               P 1 -- In 2                   0.56        2.55355
               P 3 -- In 4                   0.56        2.55355
               P 2 -- In 1                   0.56        2.55357
               P 4 -- In 4                   0.56        2.55433
               P 4 -- In 2                   0.56        2.55433
               P 3 -- In 3                   0.56        2.55435
               P 1 -- In 3                   0.56        2.55435
               P 1 -- In 1                   0.56        2.55435
               P 3 -- In 1                   0.56        2.55435
               P 2 -- In 4                   0.56        2.55436
               P 2 -- In 2                   0.56        2.55436
======================================================================


     Hirshfeld Analysis
     ------------------
Species   Ion     Hirshfeld Charge (e)
======================================
  P        1                -0.24
  P        2                -0.24
  P        3                -0.24
  P        4                -0.24
  In       1                 0.24
  In       2                 0.24
  In       3                 0.24
  In       4                 0.24
======================================

 
 A BibTeX formatted list of references used in this run has been written to 
 Bulk_Elastic_1.bib
 
Initialisation time =     12.83 s
Calculation time    =    606.12 s
Finalisation time   =      0.82 s
Total time          =    619.77 s
Peak Memory Use     = 2587228 kB
 
Overall parallel efficiency rating: Excellent (95%)
 
Data was distributed by:-
k-point (56-way); efficiency rating: Excellent (95%)
