 +-------------------------------------------------+
 |                                                 |
 |      CCC   AA    SSS  TTTTT  EEEEE  PPPP        |
 |     C     A  A  S       T    E      P   P       |
 |     C     AAAA   SS     T    EEE    PPPP        |
 |     C     A  A     S    T    E      P           |
 |      CCC  A  A  SSS     T    EEEEE  P           |
 |                                                 |
 +-------------------------------------------------+
 |                                                 |
 | Welcome to Academic Release CASTEP version 22.11|
 | Ab Initio Total Energy Program                  |
 |                                                 |
 | Authors:                                        |
 | M. Segall, M. Probert, C. Pickard, P. Hasnip,   |
 | S. Clark, K. Refson, J. R. Yates, M. Payne      |
 |                                                 |
 | Contributors:                                   |
 | P. Lindan, P. Haynes, J. White, V. Milman,      |
 | N. Govind, M. Gibson, P. Tulip, V. Cocula,      |
 | B. Montanari, D. Quigley, M. Glover,            |
 | L. Bernasconi, A. Perlov, M. Plummer,           |
 | E. McNellis, J. Meyer, J. Gale, D. Jochym       |
 | J. Aarons, B. Walker, R. Gillen, D. Jones       |
 | T. Green, I. J. Bush, C. J. Armstrong,          |
 | E. J. Higgins, E. L. Brown, M. S. McFly,        |
 | J. Wilkins, B-C. Shih, P. J. P. Byrne,          |
 | R. J. Maurer, J. C. Womack, J. Dziedzic,        |
 | A. Bartok-Partay, L. LeBlanc, T. K. Stenczel,   |
 | J. Kermode, S. Sturniolo, B. Shi, B. Durham     |
 | M. Evans, M. J. Smith                           |
 |                                                 |
 | Copyright (c) 2000 - 2021                       |
 |                                                 |
 |     Distributed under license from Cambridge    |
 |     Enterprise for academic use only.           |
 |                                                 |
 | Please cite                                     |
 |                                                 |
 |     "First principles methods using CASTEP"     |
 |                                                 |
 |         Zeitschrift fuer Kristallographie       |
 |           220(5-6) pp. 567-570 (2005)           |
 |                                                 |
 | S. J. Clark, M. D. Segall, C. J. Pickard,       |
 | P. J. Hasnip, M. J. Probert, K. Refson,         |
 | M. C. Payne                                     |
 |                                                 |
 |       in all publications arising from          |
 |              your use of CASTEP                 |
 |                                                 |
 +-------------------------------------------------+
 |                                                 |
 |              http://www.castep.org              |
 |                                                 |
 +-------------------------------------------------+



 Compiled for linux_x86_64_gfortran10-XT on Thu, 16 Mar 2023 13:12:36 +0000
 from code version Version unavailable
 Compiler: GNU Fortran 11.2.0; Optimisation: fast
 MATHLIBS: LibSci (LAPACK version 3.10.1)
 FFT Lib : fftw3 version commercial-fftw-3.3.10-sse2-avx-avx2-avx2_128
 Fundamental constants values: CODATA 2014

 Run started: Mon, 25 Mar 2024 15:51:47 +0000

 Atomic calculation performed for P: 1s2 2s2 2p6 3s2 3p3

 Converged in 47 iterations to an ae energy of -9309.074 eV

   ============================================================                
   | Pseudopotential Report - Date of generation 25-03-2024   |                
   ------------------------------------------------------------                
   | Element: P Ionic charge:  5.00 Level of theory: RSCAN    |                
   | Atomic Solver: Koelling-Harmon                           |                
   |                                                          |                
   |               Reference Electronic Structure             |                
   |         Orbital         Occupation         Energy        |                
   |            3s              2.000           -0.535        |                
   |            3p              3.000           -0.209        |                
   |                                                          |                
   |                 Pseudopotential Definition               |                
   |        Beta     l      e      Rc     scheme   norm       |                
   |          1      0   -0.535   1.807     qc      0         |                
   |          2      0    0.250   1.807     qc      0         |                
   |          3      1   -0.209   1.807     qc      0         |                
   |          4      1    0.250   1.807     qc      0         |                
   |          5      2    0.000   1.807     qc      0         |                
   |          6      2    0.250   1.807     qc      0         |                
   |         loc     3    0.000   1.807     pn      0         |                
   |                                                          |                
   | Augmentation charge Rinner = 1.263                       |                
   | Partial core correction Rc = 1.263                       |                
   ------------------------------------------------------------                
   | "3|1.8|4|4|5|30:31:32"                                   |                
   ------------------------------------------------------------                
   |      Author: Chris J. Pickard, Cambridge University      |                
   ============================================================                
 Warning: otfg_output_psp cannot write out meta-GGA pseudopotentials presently.

 Atomic calculation performed for In:
 1s2 2s2 2p6 3s2 3p6 3d10 4s2 4p6 4d10 5s2 5p1

 Converged in 84 iterations to an ae energy of -160093.327 eV

   ============================================================                
   | Pseudopotential Report - Date of generation 25-03-2024   |                
   ------------------------------------------------------------                
   | Element: In Ionic charge: 13.00 Level of theory: RSCAN   |                
   | Atomic Solver: Koelling-Harmon                           |                
   |                                                          |                
   |               Reference Electronic Structure             |                
   |         Orbital         Occupation         Energy        |                
   |            4d             10.000           -0.711        |                
   |            5s              2.000           -0.313        |                
   |            5p              1.000           -0.095        |                
   |                                                          |                
   |                 Pseudopotential Definition               |                
   |        Beta     l      e      Rc     scheme   norm       |                
   |          1      0   -0.313   2.501     qc      0         |                
   |          2      0    0.250   2.501     qc      0         |                
   |          3      1   -0.095   2.501     qc      0         |                
   |          4      1    0.250   2.501     qc      0         |                
   |          5      2   -0.711   2.207     qc      0         |                
   |          6      2    0.250   2.207     qc      0         |                
   |         loc     3    0.000   2.501     pn      0         |                
   |                                                          |                
   | Augmentation charge Rinner = 1.504                       |                
   | Partial core correction Rc = 1.504                       |                
   ------------------------------------------------------------                
   | "3|2.5|2.5|1.5|7|8|9|50:51:42U2.2U2.2"                   |                
   ------------------------------------------------------------                
   |      Author: Chris J. Pickard, Cambridge University      |                
   ============================================================                
 Warning: otfg_output_psp cannot write out meta-GGA pseudopotentials presently.

 Pseudo atomic calculation performed for P 3s2 3p3

 Converged in 23 iterations to a total energy of -208.0292 eV

 Pseudo atomic calculation performed for In 4d10 5s2 5p1

 Converged in 42 iterations to a total energy of -1747.4500 eV
 Calculation parallelised over 240 processes.
 Data is distributed by G-vector(6-way) and k-point(40-way)
 Each process may use up to 2 threads.

 ************************************ Title ************************************
 

 ***************************** General Parameters ******************************
  
 output verbosity                               : normal  (1)
 write checkpoint data to                       : StackingFaultStructs_(1_1_0)_(1_-1_0)_2.check
 type of calculation                            : geometry optimization
 stress calculation                             : off
 density difference calculation                 : off
 electron localisation func (ELF) calculation   : off
 Hirshfeld analysis                             : on
 polarisation (Berry phase) analysis            : off
 molecular orbital projected DOS                : off
 deltaSCF calculation                           : off
 unlimited duration calculation
 timing information                             : on
 memory usage estimate                          : on
 write extra output files                       : on
 write final potential to formatted file        : off
 write final density to formatted file          : off
 write BibTeX reference list                    : on
 write OTFG pseudopotential files               : on
 write electrostatic potential file             : on
 write bands file                               : on
 checkpoint writing                             : off
  
 output         length unit                     : A
 output           mass unit                     : amu
 output           time unit                     : ps
 output         charge unit                     : e
 output           spin unit                     : hbar/2
 output         energy unit                     : eV
 output          force unit                     : eV/A
 output       velocity unit                     : A/ps
 output       pressure unit                     : GPa
 output     inv_length unit                     : 1/A
 output      frequency unit                     : cm-1
 output force constant unit                     : eV/A**2
 output         volume unit                     : A**3
 output   IR intensity unit                     : (D/A)**2/amu
 output         dipole unit                     : D
 output         efield unit                     : eV/A/e
 output        entropy unit                     : J/mol/K
 output    efield chi2 unit                     : pm/V
  
 wavefunctions paging                           : none
 random number generator seed                   : randomised (155147965)
 data distribution                              : optimal for this architecture
 optimization strategy                          : balance speed and memory

 *********************** Exchange-Correlation Parameters ***********************
  
 using functional                               : RSCAN
 relativistic treatment                         : Koelling-Harmon
 DFT+D: Semi-empirical dispersion correction    : off

 ************************* Pseudopotential Parameters **************************
  
 pseudopotential representation                 : reciprocal space
 <beta|phi> representation                      : reciprocal space
 spin-orbit coupling                            : off

 **************************** Basis Set Parameters *****************************
  
 plane wave basis set cut-off                   :   900.0000   eV
 size of standard grid                          :     2.0000
 size of   fine   gmax                          :    30.7390   1/A
 finite basis set correction                    : none

 **************************** Electronic Parameters ****************************
  
 number of  electrons                           :  288.0    
 net charge of system                           :  0.000    
 treating system as non-spin-polarized
 number of bands                                :        173

 ********************* Electronic Minimization Parameters **********************
  
 Method: Treating system as metallic with density mixing treatment of electrons,
         and number of  SD  steps               :          1
         and number of  CG  steps               :          4
  
 total energy / atom convergence tol.           : 0.1000E-07   eV
 eigen-energy convergence tolerance             : 0.2222E-08   eV
 max force / atom convergence tol.              : ignored
 convergence tolerance window                   :          3   cycles
 max. number of SCF cycles                      :         50
 number of fixed-spin iterations                :         10
 smearing scheme                                : Gaussian
 smearing width                                 : 0.2000       eV
 Fermi energy convergence tolerance             : 0.2721E-13   eV
 periodic dipole correction                     : NONE

 ************************** Density Mixing Parameters **************************
  
 density-mixing scheme                          : Pulay
 max. length of mixing history                  :         15
 charge density mixing amplitude                : 0.5000    
 cut-off energy for mixing                      :  900.0       eV

 *********************** Population Analysis Parameters ************************
  
 Population analysis with cutoff                :  3.000       A
 Population analysis output                     : summary and pdos components

 ********************** Geometry Optimization Parameters ***********************
  
 optimization method                            : LBFGS
 max. no. of LBFGS updates                      : unbounded
 preconditioned LBFGS is activated
 preconditioner type                            : EXP
     stabilization constant                     :     0.1000
     parameter A                                :     3.0000
     nearest neighbor distance                  : automatic
     cut-off distance                           : automatic
     parameter mu                               : automatic
 variable cell method                           : fixed basis quality
 max. number of steps                           :         30
 estimated bulk modulus                         :  500.0       GPa
 estimated <frequency>                          :  1668.       cm-1
 geom line minimiser                            : on
 with line minimiser tolerance                  :     0.4000
 total energy convergence tolerance             : 0.2000E-04   eV/atom
        max ionic |force| tolerance             : 0.1000E-02   eV/A
 max ionic |displacement| tolerance             : 0.1000E-02   A
   max |stress component| tolerance             : 0.1000       GPa
 convergence tolerance window                   :          2   steps
 backup results every                           :          5   steps
 write geom trajectory file                     : on

 *******************************************************************************
  

                           -------------------------------
                                      Unit Cell
                           -------------------------------
        Real Lattice(A)                      Reciprocal Lattice(1/A)
     5.9012740     0.0000000     0.0000000        1.064716756   0.000000000   0.000000000
     0.0000000     8.3456610     0.0000000        0.000000000   0.752868503  -0.043434727
     0.0000000     0.9629610    16.6913220        0.000000000   0.000000000   0.376434252

                       Lattice parameters(A)       Cell Angles
                    a =      5.901274          alpha =   86.698134
                    b =      8.345661          beta  =   90.000000
                    c =     16.719077          gamma =   90.000000

                       Current cell volume =           822.048147       A**3
                                   density =             2.837630   AMU/A**3
                                           =             4.711995     g/cm^3

                           -------------------------------
                                     Cell Contents
                           -------------------------------
                         Total number of ions in cell =   32
                      Total number of species in cell =    2
                        Max number of any one species =   16

            xxxxxxxxxxxxxxxxxxxxxxxxxxxxxxxxxxxxxxxxxxxxxxxxxxxxxxxxxxxx
            x  Element    Atom        Fractional coordinates of atoms  x
            x            Number           u          v          w      x
            x----------------------------------------------------------x
            x  P            1         0.750000   0.456735   0.374968   x 
            x  P            2         0.250000   0.250575  -0.004982   x 
            x  P            3         0.750000   0.398464   0.879982   x 
            x  P            4         0.750000   0.485714   0.123808   x 
            x  P            5         0.250000   0.663324   0.751192   x 
            x  P            6         0.750000  -0.014286   0.123808   x 
            x  P            7         0.250000   0.221373   0.248104   x 
            x  P            8         0.250000   0.163324   0.751192   x 
            x  P            9         0.250000   0.721373   0.248104   x 
            x  P           10         0.750000  -0.072334   0.626896   x 
            x  P           11         0.750000  -0.043266   0.374968   x 
            x  P           12         0.750000   0.427666   0.626896   x 
            x  P           13         0.250000   0.192304   0.500032   x 
            x  P           14         0.250000   0.692304   0.500032   x 
            x  P           15         0.750000  -0.101536   0.879982   x 
            x  P           16         0.250000   0.750575  -0.004982   x 
            x  In           1         0.500000   0.206835   0.374101   x 
            x  In           2         0.000000   0.413061   0.753475   x 
            x  In           3         0.500000   0.677828   0.625487   x 
            x  In           4         0.000000  -0.086939   0.753475   x 
            x  In           5         0.500000   0.177828   0.625487   x 
            x  In           6         0.000000  -0.057796   0.500899   x 
            x  In           7         0.000000   0.442204   0.500899   x 
            x  In           8         0.500000   0.648906   0.876145   x 
            x  In           9         0.500000   0.706835   0.374101   x 
            x  In          10         0.000000   0.471210   0.249513   x 
            x  In          11         0.500000   0.735978   0.121525   x 
            x  In          12         0.500000   0.148906   0.876145   x 
            x  In          13         0.000000  -0.028790   0.249513   x 
            x  In          14         0.500000   0.235978   0.121525   x 
            x  In          15         0.000000   0.000132  -0.001145   x 
            x  In          16         0.000000   0.500132  -0.001145   x 
            xxxxxxxxxxxxxxxxxxxxxxxxxxxxxxxxxxxxxxxxxxxxxxxxxxxxxxxxxxxx


                         No user defined ionic velocities

                           -------------------------------
                                   Details of Species
                           -------------------------------

                               Mass of species in AMU
                                    P   30.9737600
                                    In  114.8180000

                          Electric Quadrupole Moment (Barn)
                                    P    1.0000000 No Isotope Defined
                                    In    0.7700000 Isotope115

                          Files used for pseudopotentials:
                                    P 3|1.8|4|4|5|30:31:32
                                    In 3|2.5|2.5|1.5|7|8|9|50:51:42U2.2U2.2

                           -------------------------------
                              k-Points For BZ Sampling
                           -------------------------------
                       MP grid size for SCF calculation is  6  6  2
                            with an offset of   0.083  0.083  0.250
                       Number of kpoints used =            40

                           -------------------------------
                               Symmetry and Constraints
                           -------------------------------

                      Cell is a supercell containing 2 primitive cells
                      Maximum deviation from symmetry =  0.00000         ANG

                      Number of symmetry operations   =           1
                      Number of ionic constraints     =          64
                      Point group of crystal =     1: C1, 1, 1
                      Space group of crystal =     4: P2_1, P 2yb

             Set iprint > 1 for details on symmetry rotations/translations

                         Centre of mass is NOT constrained
             Set iprint > 1 for details of linear ionic constraints

                         Number of cell constraints= 6
                         Cell constraints are:  0 0 0 0 0 0

                         External pressure/stress (GPa)
                          0.00000   0.00000   0.00000
                                    0.00000   0.00000
                                              0.00000
 
+---------------- MEMORY AND SCRATCH DISK ESTIMATES PER PROCESS --------------+
|                                                     Memory          Disk    |
| Baseline code, static data and system overhead      488.0 MB         0.0 MB |
| BLAS internal memory storage                          0.0 MB         0.0 MB |
| Model and support data                             1164.2 MB         0.0 MB |
| Electronic energy minimisation requirements         143.7 MB         0.0 MB |
| Force calculation requirements                       23.8 MB         0.0 MB |
|                                               ----------------------------- |
| Approx. total storage required per process         1795.9 MB         0.0 MB |
|                                                                             |
| Requirements will fluctuate during execution and may exceed these estimates |
+-----------------------------------------------------------------------------+
Calculating approximate eigenstates for fixed initial Hamiltonian
Cut-off for approx. calculation is  108.886 eV
Improving approx. states at cut-off of  450.000 eV
Resetting cut-off to  900.000 eV
Calculating total energy with cut-off of  900.000 eV.
------------------------------------------------------------------------ <-- SCF
SCF loop      Energy           Fermi           Energy gain       Timer   <-- SCF
                               energy          per atom          (sec)   <-- SCF
------------------------------------------------------------------------ <-- SCF
Initial  -3.15166322E+004  0.00000000E+000                        53.29  <-- SCF
      1  -3.14012757E+004  2.58855257E+000  -3.60488966E+000      78.56  <-- SCF
      2  -3.14013014E+004  2.58847789E+000   8.02091839E-004      99.68  <-- SCF
      3  -3.14350235E+004  2.89010710E+000   1.05381507E+000     122.54  <-- SCF
      4  -3.14406390E+004  2.96045988E+000   1.75483706E-001     150.27  <-- SCF
      5  -3.14383240E+004  3.30891411E+000  -7.23421627E-002     172.95  <-- SCF
      6  -3.14378168E+004  3.36017359E+000  -1.58498746E-002     195.64  <-- SCF
      7  -3.14377532E+004  3.40946125E+000  -1.98752853E-003     219.17  <-- SCF
      8  -3.14385697E+004  3.44925514E+000   2.55158905E-002     241.97  <-- SCF
      9  -3.14385520E+004  3.39470602E+000  -5.55166442E-004     264.78  <-- SCF
     10  -3.14385560E+004  3.41512774E+000   1.26525917E-004     288.33  <-- SCF
     11  -3.14385558E+004  3.41513106E+000  -5.98260423E-006     312.65  <-- SCF
     12  -3.14385561E+004  3.41357970E+000   9.18156372E-006     335.73  <-- SCF
     13  -3.14385561E+004  3.41362748E+000   4.01474295E-007     356.05  <-- SCF
     14  -3.14385561E+004  3.41352463E+000   2.78787307E-008     372.87  <-- SCF
     15  -3.14385561E+004  3.41353187E+000   6.81650231E-009     389.35  <-- SCF
     16  -3.14385561E+004  3.41354140E+000   3.03557187E-011     405.79  <-- SCF
------------------------------------------------------------------------ <-- SCF
 
Final energy, E             =  -31438.55605605     eV
Final free energy (E-TS)    =  -31438.55613445     eV
(energies not corrected for finite basis set)
 
NB est. 0K energy (E-0.5TS)      =  -31438.55609525     eV
 
 
+---------------- MEMORY AND SCRATCH DISK ESTIMATES PER PROCESS --------------+
|                                                     Memory          Disk    |
| Model and support data                              742.4 MB         0.0 MB |
| Electronic energy minimisation requirements         143.7 MB         0.0 MB |
| Geometry minimisation requirements                  169.0 MB         0.0 MB |
|                                               ----------------------------- |
| Approx. total storage required per process         1055.1 MB         0.0 MB |
|                                                                             |
| Requirements will fluctuate during execution and may exceed these estimates |
+-----------------------------------------------------------------------------+
 

 ******************************** Constrained Forces ********************************
 *                                                                                  *
 *                           Cartesian components (eV/A)                            *
 * -------------------------------------------------------------------------------- *
 *                         x                    y                    z              *
 *                                                                                  *
 * P               1      0.00000(cons'd)      0.00000(cons'd)      0.00637         *
 * P               2      0.00000(cons'd)      0.00000(cons'd)     -0.01574         *
 * P               3      0.00000(cons'd)      0.00000(cons'd)      0.01142         *
 * P               4     -0.00000(cons'd)     -0.00000(cons'd)      0.00133         *
 * P               5      0.00000(cons'd)      0.00000(cons'd)     -0.01052         *
 * P               6     -0.00000(cons'd)     -0.00000(cons'd)      0.00133         *
 * P               7      0.00000(cons'd)      0.00000(cons'd)      0.01843         *
 * P               8      0.00000(cons'd)      0.00000(cons'd)     -0.01052         *
 * P               9      0.00000(cons'd)     -0.00000(cons'd)      0.01844         *
 * P              10      0.00000(cons'd)      0.00000(cons'd)     -0.00935         *
 * P              11      0.00000(cons'd)     -0.00000(cons'd)      0.00637         *
 * P              12      0.00000(cons'd)      0.00000(cons'd)     -0.00935         *
 * P              13      0.00000(cons'd)     -0.00000(cons'd)     -0.00509         *
 * P              14      0.00000(cons'd)      0.00000(cons'd)     -0.00509         *
 * P              15      0.00000(cons'd)      0.00000(cons'd)      0.01142         *
 * P              16      0.00000(cons'd)     -0.00000(cons'd)     -0.01574         *
 * In              1      0.00000(cons'd)     -0.00000(cons'd)     -0.01316         *
 * In              2      0.00000(cons'd)      0.00000(cons'd)     -0.01688         *
 * In              3      0.00000(cons'd)      0.00000(cons'd)      0.00077         *
 * In              4      0.00000(cons'd)     -0.00000(cons'd)     -0.01688         *
 * In              5      0.00000(cons'd)      0.00000(cons'd)      0.00077         *
 * In              6      0.00000(cons'd)      0.00000(cons'd)      0.01351         *
 * In              7      0.00000(cons'd)      0.00000(cons'd)      0.01351         *
 * In              8      0.00000(cons'd)      0.00000(cons'd)      0.05876         *
 * In              9      0.00000(cons'd)      0.00000(cons'd)     -0.01316         *
 * In             10      0.00000(cons'd)      0.00000(cons'd)      0.00029         *
 * In             11      0.00000(cons'd)      0.00000(cons'd)      0.01766         *
 * In             12      0.00000(cons'd)      0.00000(cons'd)      0.05877         *
 * In             13      0.00000(cons'd)      0.00000(cons'd)      0.00029         *
 * In             14      0.00000(cons'd)      0.00000(cons'd)      0.01766         *
 * In             15      0.00000(cons'd)      0.00000(cons'd)     -0.05782         *
 * In             16      0.00000(cons'd)      0.00000(cons'd)     -0.05782         *
 *                                                                                  *
 ************************************************************************************
 EXP precond LBFGS => estimated nearest neighbor distance :  2.556       A
 EXP precond LBFGS => estimated cutoff distance :  5.112       A

 ************************************** Forces **************************************
 *                                                                                  *
 *                           Cartesian components (eV/A)                            *
 * -------------------------------------------------------------------------------- *
 *                         x                    y                    z              *
 *                                                                                  *
 * P               1      0.04123(cons'd)     -0.00571(cons'd)      0.00637         *
 * P               2      0.35007(cons'd)     -0.86485(cons'd)     -0.01574         *
 * P               3      0.35670(cons'd)      0.86393(cons'd)      0.01142         *
 * P               4     -0.02809(cons'd)     -0.09011(cons'd)      0.00133         *
 * P               5     -0.02921(cons'd)      0.09776(cons'd)     -0.01052         *
 * P               6     -0.02809(cons'd)     -0.09010(cons'd)      0.00133         *
 * P               7      0.08212(cons'd)     -0.00691(cons'd)      0.01843         *
 * P               8     -0.02921(cons'd)      0.09776(cons'd)     -0.01052         *
 * P               9      0.08212(cons'd)     -0.00692(cons'd)      0.01844         *
 * P              10      0.07595(cons'd)      0.00884(cons'd)     -0.00935         *
 * P              11      0.04123(cons'd)     -0.00571(cons'd)      0.00637         *
 * P              12      0.07595(cons'd)      0.00883(cons'd)     -0.00935         *
 * P              13      0.03470(cons'd)     -0.00163(cons'd)     -0.00509         *
 * P              14      0.03470(cons'd)     -0.00163(cons'd)     -0.00509         *
 * P              15      0.35670(cons'd)      0.86393(cons'd)      0.01142         *
 * P              16      0.35007(cons'd)     -0.86485(cons'd)     -0.01574         *
 * In              1     -0.06454(cons'd)      0.00115(cons'd)     -0.01316         *
 * In              2     -0.12138(cons'd)      0.07183(cons'd)     -0.01688         *
 * In              3     -0.00468(cons'd)     -0.00543(cons'd)      0.00077         *
 * In              4     -0.12138(cons'd)      0.07183(cons'd)     -0.01688         *
 * In              5     -0.00467(cons'd)     -0.00543(cons'd)      0.00077         *
 * In              6     -0.06461(cons'd)     -0.00102(cons'd)      0.01351         *
 * In              7     -0.06460(cons'd)     -0.00103(cons'd)      0.01351         *
 * In              8     -0.25107(cons'd)      0.20699(cons'd)      0.05876         *
 * In              9     -0.06454(cons'd)      0.00114(cons'd)     -0.01316         *
 * In             10     -0.00466(cons'd)      0.00503(cons'd)      0.00029         *
 * In             11     -0.12150(cons'd)     -0.07257(cons'd)      0.01766         *
 * In             12     -0.25106(cons'd)      0.20699(cons'd)      0.05877         *
 * In             13     -0.00466(cons'd)      0.00503(cons'd)      0.00029         *
 * In             14     -0.12150(cons'd)     -0.07257(cons'd)      0.01766         *
 * In             15     -0.25104(cons'd)     -0.20728(cons'd)     -0.05782         *
 * In             16     -0.25103(cons'd)     -0.20729(cons'd)     -0.05782         *
 *                                                                                  *
 ************************************************************************************
 doing test perturbation to get energy scale for EXP preconditioner

                           -------------------------------
                                     Cell Contents
                           -------------------------------

            xxxxxxxxxxxxxxxxxxxxxxxxxxxxxxxxxxxxxxxxxxxxxxxxxxxxxxxxxxxxxxxxx
            x  Element         Atom        Fractional coordinates of atoms  x
            x                 Number           u          v          w      x
            x---------------------------------------------------------------x
            x  P                 1         0.753645   0.458302   0.375603   x
            x  P                 2         0.251417   0.251644   0.996406   x
            x  P                 3         0.753645   0.399955   0.881273   x
            x  P                 4         0.753645   0.487330   0.124024   x
            x  P                 5         0.251417   0.665487   0.752348   x
            x  P                 6         0.753645   0.988460   0.124024   x
            x  P                 7         0.251417   0.222177   0.248531   x
            x  P                 8         0.251417   0.164045   0.752348   x
            x  P                 9         0.251417   0.723620   0.248531   x
            x  P                10         0.753645   0.930321   0.627899   x
            x  P                11         0.753645   0.959432   0.375603   x
            x  P                12         0.753645   0.429191   0.627899   x
            x  P                13         0.251417   0.193063   0.500858   x
            x  P                14         0.251417   0.694505   0.500858   x
            x  P                15         0.753645   0.901085   0.881273   x
            x  P                16         0.251417   0.752955   0.996406   x
            x  In                1         0.502678   0.207616   0.374734   x
            x  In                2         0.000000   0.414567   0.754635   x
            x  In                3         0.502678   0.680009   0.626489   x
            x  In                4         0.000000   0.915697   0.754635   x
            x  In                5         0.502678   0.178567   0.626489   x
            x  In                6         0.000000   0.944879   0.501727   x
            x  In                7         0.000000   0.443749   0.501727   x
            x  In                8         0.502678   0.651054   0.877432   x
            x  In                9         0.502678   0.709058   0.374734   x
            x  In               10         0.000000   0.472801   0.249943   x
            x  In               11         0.502678   0.738250   0.121736   x
            x  In               12         0.502678   0.149612   0.877432   x
            x  In               13         0.000000   0.973931   0.249943   x
            x  In               14         0.502678   0.236808   0.121736   x
            x  In               15         0.000000   0.000370   1.000246   x
            x  In               16         0.000000   0.501935   1.000246   x
            xxxxxxxxxxxxxxxxxxxxxxxxxxxxxxxxxxxxxxxxxxxxxxxxxxxxxxxxxxxxxxxxx


------------------------------------------------------------------------ <-- SCF
SCF loop      Energy           Fermi           Energy gain       Timer   <-- SCF
                               energy          per atom          (sec)   <-- SCF
------------------------------------------------------------------------ <-- SCF
Initial  -3.14369988E+004  0.00000000E+000                       434.66  <-- SCF
      1  -3.14383589E+004  3.41039706E+000   4.25031316E-002     457.48  <-- SCF
      2  -3.14385467E+004  3.41032573E+000   5.86844745E-003     485.37  <-- SCF
      3  -3.14385485E+004  3.41045740E+000   5.66764039E-005     509.04  <-- SCF
      4  -3.14385500E+004  3.41051821E+000   4.65076055E-005     533.20  <-- SCF
      5  -3.14385501E+004  3.41047151E+000   5.43964657E-006     560.23  <-- SCF
      6  -3.14385502E+004  3.41044327E+000   1.32207527E-006     583.83  <-- SCF
      7  -3.14385502E+004  3.41044523E+000   1.04854259E-007     604.51  <-- SCF
      8  -3.14385502E+004  3.41044426E+000   1.50920126E-008     621.10  <-- SCF
      9  -3.14385502E+004  3.41044280E+000   1.96925474E-009     637.87  <-- SCF
     10  -3.14385502E+004  3.41044106E+000   1.93928572E-010     654.33  <-- SCF
     11  -3.14385502E+004  3.41044061E+000   6.14848315E-011     670.80  <-- SCF
------------------------------------------------------------------------ <-- SCF
 
Final energy, E             =  -31438.55011816     eV
Final free energy (E-TS)    =  -31438.55019207     eV
(energies not corrected for finite basis set)
 
NB est. 0K energy (E-0.5TS)      =  -31438.55015511     eV
 

 ************************************** Forces **************************************
 *                                                                                  *
 *                           Cartesian components (eV/A)                            *
 * -------------------------------------------------------------------------------- *
 *                         x                    y                    z              *
 *                                                                                  *
 * P               1     -0.10709(cons'd)     -0.00661(cons'd)      0.00722         *
 * P               2      0.30711(cons'd)     -0.85735(cons'd)     -0.10093         *
 * P               3      0.22869(cons'd)      0.85204(cons'd)      0.02111         *
 * P               4     -0.22795(cons'd)     -0.08053(cons'd)      0.11924         *
 * P               5     -0.01776(cons'd)      0.08196(cons'd)     -0.00221         *
 * P               6     -0.16748(cons'd)     -0.19171(cons'd)      0.12332         *
 * P               7      0.14678(cons'd)      0.09442(cons'd)      0.02735         *
 * P               8      0.03029(cons'd)      0.20002(cons'd)     -0.00497         *
 * P               9      0.09550(cons'd)     -0.03048(cons'd)      0.02682         *
 * P              10     -0.00538(cons'd)     -0.07723(cons'd)     -0.01572         *
 * P              11     -0.04624(cons'd)     -0.09920(cons'd)      0.00873         *
 * P              12     -0.06609(cons'd)      0.01591(cons'd)     -0.01806         *
 * P              13      0.09281(cons'd)      0.10104(cons'd)     -0.00830         *
 * P              14      0.04378(cons'd)     -0.01548(cons'd)     -0.00898         *
 * P              15      0.26503(cons'd)      0.73494(cons'd)      0.00588         *
 * P              16      0.36460(cons'd)     -0.94929(cons'd)     -0.09468         *
 * In              1     -0.15065(cons'd)      0.08647(cons'd)     -0.01378         *
 * In              2      0.04157(cons'd)      0.07690(cons'd)     -0.01917         *
 * In              3     -0.04434(cons'd)     -0.01730(cons'd)     -0.00156         *
 * In              4     -0.00399(cons'd)     -0.00115(cons'd)     -0.02392         *
 * In              5     -0.08669(cons'd)      0.07975(cons'd)     -0.00241         *
 * In              6      0.05424(cons'd)     -0.07485(cons'd)      0.01175         *
 * In              7      0.10365(cons'd)      0.00012(cons'd)      0.01156         *
 * In              8     -0.28315(cons'd)      0.19937(cons'd)      0.02964         *
 * In              9     -0.10874(cons'd)     -0.01057(cons'd)     -0.01441         *
 * In             10      0.16356(cons'd)      0.01014(cons'd)      0.00474         *
 * In             11     -0.11709(cons'd)     -0.07910(cons'd)      0.11623         *
 * In             12     -0.33808(cons'd)      0.30868(cons'd)      0.05813         *
 * In             13      0.11222(cons'd)     -0.07036(cons'd)      0.00384         *
 * In             14     -0.16784(cons'd)      0.01371(cons'd)      0.08207         *
 * In             15     -0.07231(cons'd)     -0.07394(cons'd)     -0.15567         *
 * In             16     -0.03894(cons'd)     -0.22034(cons'd)     -0.17285         *
 *                                                                                  *
 ************************************************************************************
 EXP precond LBFGS => estimated parameter mu :  2.036       eV/A**2
 LBFGS: finished iteration     0 with enthalpy= -3.14385561E+004 eV
  
 +-----------+-----------------+-----------------+------------+-----+ <-- LBFGS
 | Parameter |      value      |    tolerance    |    units   | OK? | <-- LBFGS
 +-----------+-----------------+-----------------+------------+-----+ <-- LBFGS
 |  dE/ion   |   0.000000E+000 |   2.000000E-005 |         eV | No  | <-- LBFGS
 |  |F|max   |   1.021299E+000 |   1.000000E-003 |       eV/A | No  | <-- LBFGS
 |  |dR|max  |   3.877693E-015 |   1.000000E-003 |          A | No  | <-- LBFGS
 +-----------+-----------------+-----------------+------------+-----+ <-- LBFGS
  

================================================================================
 Starting LBFGS iteration          1 ...
================================================================================
  
 +------------+-------------+-------------+-----------------+ <-- min LBFGS
 |    Step    |   lambda    |   F.delta'  |    enthalpy     | <-- min LBFGS
 +------------+-------------+-------------+-----------------+ <-- min LBFGS
 |  previous  |    0.000000 |    0.078814 |   -31438.556134 | <-- min LBFGS
 +------------+-------------+-------------+-----------------+ <-- min LBFGS
  

--------------------------------------------------------------------------------
 LBFGS: starting iteration         1 with trial guess (lambda=  1.000000)
--------------------------------------------------------------------------------

                           -------------------------------
                                     Cell Contents
                           -------------------------------

            xxxxxxxxxxxxxxxxxxxxxxxxxxxxxxxxxxxxxxxxxxxxxxxxxxxxxxxxxxxxxxxxx
            x  Element         Atom        Fractional coordinates of atoms  x
            x                 Number           u          v          w      x
            x---------------------------------------------------------------x
            x  P                 1         0.750000   0.456728   0.375024   x
            x  P                 2         0.250000   0.250590  -0.005112   x
            x  P                 3         0.750000   0.398455   0.880053   x
            x  P                 4         0.750000   0.485715   0.123802   x
            x  P                 5         0.250000   0.663330   0.751138   x
            x  P                 6         0.750000  -0.014285   0.123802   x
            x  P                 7         0.250000   0.221358   0.248231   x
            x  P                 8         0.250000   0.163330   0.751138   x
            x  P                 9         0.250000   0.721358   0.248231   x
            x  P                10         0.750000  -0.072327   0.626834   x
            x  P                11         0.750000  -0.043272   0.375024   x
            x  P                12         0.750000   0.427673   0.626834   x
            x  P                13         0.250000   0.192305   0.500020   x
            x  P                14         0.250000   0.692305   0.500020   x
            x  P                15         0.750000  -0.101545   0.880053   x
            x  P                16         0.250000   0.750590  -0.005112   x
            x  In                1         0.500000   0.206837   0.374078   x
            x  In                2         0.000000   0.413073   0.753368   x
            x  In                3         0.500000   0.677831   0.625463   x
            x  In                4         0.000000  -0.086927   0.753368   x
            x  In                5         0.500000   0.177831   0.625463   x
            x  In                6         0.000000  -0.057804   0.500966   x
            x  In                7         0.000000   0.442196   0.500966   x
            x  In                8         0.500000   0.648873   0.876430   x
            x  In                9         0.500000   0.706837   0.374078   x
            x  In               10         0.000000   0.471204   0.249565   x
            x  In               11         0.500000   0.735968   0.121614   x
            x  In               12         0.500000   0.148873   0.876430   x
            x  In               13         0.000000  -0.028796   0.249565   x
            x  In               14         0.500000   0.235968   0.121614   x
            x  In               15         0.000000   0.000170  -0.001474   x
            x  In               16         0.000000   0.500170  -0.001474   x
            xxxxxxxxxxxxxxxxxxxxxxxxxxxxxxxxxxxxxxxxxxxxxxxxxxxxxxxxxxxxxxxxx


------------------------------------------------------------------------ <-- SCF
SCF loop      Energy           Fermi           Energy gain       Timer   <-- SCF
                               energy          per atom          (sec)   <-- SCF
------------------------------------------------------------------------ <-- SCF
Initial  -3.14368770E+004  0.00000000E+000                       688.53  <-- SCF
      1  -3.14383606E+004  3.41340009E+000   4.63599407E-002     711.33  <-- SCF
      2  -3.14385536E+004  3.41332736E+000   6.03114474E-003     739.24  <-- SCF
      3  -3.14385554E+004  3.41331375E+000   5.77929251E-005     762.93  <-- SCF
      4  -3.14385569E+004  3.41337795E+000   4.74658220E-005     787.15  <-- SCF
      5  -3.14385571E+004  3.41339172E+000   5.33430430E-006     814.21  <-- SCF
      6  -3.14385571E+004  3.41339503E+000   1.22450638E-006     837.91  <-- SCF
      7  -3.14385571E+004  3.41339427E+000   1.21076781E-007     858.80  <-- SCF
      8  -3.14385571E+004  3.41339113E+000   1.42925164E-008     875.66  <-- SCF
      9  -3.14385571E+004  3.41338816E+000   7.26217066E-010     892.19  <-- SCF
     10  -3.14385571E+004  3.41338423E+000  -1.79620781E-010     908.79  <-- SCF
     11  -3.14385571E+004  3.41338184E+000  -3.55761289E-011     925.25  <-- SCF
------------------------------------------------------------------------ <-- SCF
 
Final energy, E             =  -31438.55705475     eV
Final free energy (E-TS)    =  -31438.55713339     eV
(energies not corrected for finite basis set)
 
NB est. 0K energy (E-0.5TS)      =  -31438.55709407     eV
 

 ******************************** Constrained Forces ********************************
 *                                                                                  *
 *                           Cartesian components (eV/A)                            *
 * -------------------------------------------------------------------------------- *
 *                         x                    y                    z              *
 *                                                                                  *
 * P               1      0.00000(cons'd)     -0.00000(cons'd)      0.00462         *
 * P               2      0.00000(cons'd)      0.00000(cons'd)      0.01403         *
 * P               3      0.00000(cons'd)      0.00000(cons'd)     -0.01351         *
 * P               4     -0.00000(cons'd)     -0.00000(cons'd)     -0.01376         *
 * P               5      0.00000(cons'd)      0.00000(cons'd)      0.01328         *
 * P               6     -0.00000(cons'd)      0.00000(cons'd)     -0.01377         *
 * P               7      0.00000(cons'd)      0.00000(cons'd)      0.00087         *
 * P               8      0.00000(cons'd)      0.00000(cons'd)      0.01328         *
 * P               9      0.00000(cons'd)     -0.00000(cons'd)      0.00087         *
 * P              10      0.00000(cons'd)      0.00000(cons'd)     -0.00045         *
 * P              11      0.00000(cons'd)      0.00000(cons'd)      0.00462         *
 * P              12      0.00000(cons'd)      0.00000(cons'd)     -0.00046         *
 * P              13      0.00000(cons'd)      0.00000(cons'd)     -0.00477         *
 * P              14      0.00000(cons'd)     -0.00000(cons'd)     -0.00477         *
 * P              15      0.00000(cons'd)      0.00000(cons'd)     -0.01351         *
 * P              16      0.00000(cons'd)      0.00000(cons'd)      0.01403         *
 * In              1      0.00000(cons'd)      0.00000(cons'd)     -0.00199         *
 * In              2      0.00000(cons'd)      0.00000(cons'd)     -0.00729         *
 * In              3      0.00000(cons'd)      0.00000(cons'd)     -0.00039         *
 * In              4      0.00000(cons'd)      0.00000(cons'd)     -0.00729         *
 * In              5      0.00000(cons'd)      0.00000(cons'd)     -0.00038         *
 * In              6      0.00000(cons'd)      0.00000(cons'd)      0.00357         *
 * In              7      0.00000(cons'd)      0.00000(cons'd)      0.00358         *
 * In              8      0.00000(cons'd)     -0.00000(cons'd)      0.02200         *
 * In              9      0.00000(cons'd)     -0.00000(cons'd)     -0.00199         *
 * In             10      0.00000(cons'd)      0.00000(cons'd)     -0.00252         *
 * In             11      0.00000(cons'd)      0.00000(cons'd)      0.00966         *
 * In             12      0.00000(cons'd)      0.00000(cons'd)      0.02199         *
 * In             13      0.00000(cons'd)      0.00000(cons'd)     -0.00252         *
 * In             14      0.00000(cons'd)      0.00000(cons'd)      0.00968         *
 * In             15      0.00000(cons'd)      0.00000(cons'd)     -0.02334         *
 * In             16      0.00000(cons'd)      0.00000(cons'd)     -0.02335         *
 *                                                                                  *
 ************************************************************************************
  
 +------------+-------------+-------------+-----------------+ <-- min LBFGS
 |    Step    |   lambda    |   F.delta'  |    enthalpy     | <-- min LBFGS
 +------------+-------------+-------------+-----------------+ <-- min LBFGS
 |  previous  |    0.000000 |    0.078814 |   -31438.556134 | <-- min LBFGS
 | trial step |    1.000000 |    0.021408 |   -31438.557133 | <-- min LBFGS
 +------------+-------------+-------------+-----------------+ <-- min LBFGS
  
 LBFGS: finished iteration     1 with enthalpy= -3.14385571E+004 eV
  
 +-----------+-----------------+-----------------+------------+-----+ <-- LBFGS
 | Parameter |      value      |    tolerance    |    units   | OK? | <-- LBFGS
 +-----------+-----------------+-----------------+------------+-----+ <-- LBFGS
 |  dE/ion   |   3.121706E-005 |   2.000000E-005 |         eV | No  | <-- LBFGS
 |  |F|max   |   2.335342E-002 |   1.000000E-003 |       eV/A | No  | <-- LBFGS
 |  |dR|max  |   5.491473E-003 |   1.000000E-003 |          A | No  | <-- LBFGS
 +-----------+-----------------+-----------------+------------+-----+ <-- LBFGS
  

================================================================================
 Starting LBFGS iteration          2 ...
================================================================================
  
 +------------+-------------+-------------+-----------------+ <-- min LBFGS
 |    Step    |   lambda    |   F.delta'  |    enthalpy     | <-- min LBFGS
 +------------+-------------+-------------+-----------------+ <-- min LBFGS
 |  previous  |    0.000000 |    0.035528 |   -31438.557133 | <-- min LBFGS
 +------------+-------------+-------------+-----------------+ <-- min LBFGS
  

--------------------------------------------------------------------------------
 LBFGS: starting iteration         2 with trial guess (lambda=  1.000000)
--------------------------------------------------------------------------------

                           -------------------------------
                                     Cell Contents
                           -------------------------------

            xxxxxxxxxxxxxxxxxxxxxxxxxxxxxxxxxxxxxxxxxxxxxxxxxxxxxxxxxxxxxxxxx
            x  Element         Atom        Fractional coordinates of atoms  x
            x                 Number           u          v          w      x
            x---------------------------------------------------------------x
            x  P                 1         0.750000   0.456724   0.375059   x
            x  P                 2         0.250000   0.250586  -0.005081   x
            x  P                 3         0.750000   0.398461   0.880007   x
            x  P                 4         0.750000   0.485732   0.123660   x
            x  P                 5         0.250000   0.663316   0.751260   x
            x  P                 6         0.750000  -0.014268   0.123660   x
            x  P                 7         0.250000   0.221357   0.248242   x
            x  P                 8         0.250000   0.163316   0.751260   x
            x  P                 9         0.250000   0.721357   0.248242   x
            x  P                10         0.750000  -0.072328   0.626841   x
            x  P                11         0.750000  -0.043276   0.375059   x
            x  P                12         0.750000   0.427672   0.626841   x
            x  P                13         0.250000   0.192308   0.500000   x
            x  P                14         0.250000   0.692308   0.500000   x
            x  P                15         0.750000  -0.101539   0.880007   x
            x  P                16         0.250000   0.750586  -0.005081   x
            x  In                1         0.500000   0.206840   0.374054   x
            x  In                2         0.000000   0.413077   0.753335   x
            x  In                3         0.500000   0.677828   0.625491   x
            x  In                4         0.000000  -0.086923   0.753335   x
            x  In                5         0.500000   0.177828   0.625491   x
            x  In                6         0.000000  -0.057809   0.501015   x
            x  In                7         0.000000   0.442191   0.501015   x
            x  In                8         0.500000   0.648845   0.876678   x
            x  In                9         0.500000   0.706840   0.374054   x
            x  In               10         0.000000   0.471209   0.249524   x
            x  In               11         0.500000   0.735963   0.121657   x
            x  In               12         0.500000   0.148845   0.876678   x
            x  In               13         0.000000  -0.028791   0.249524   x
            x  In               14         0.500000   0.235963   0.121657   x
            x  In               15         0.000000   0.000201  -0.001743   x
            x  In               16         0.000000   0.500201  -0.001743   x
            xxxxxxxxxxxxxxxxxxxxxxxxxxxxxxxxxxxxxxxxxxxxxxxxxxxxxxxxxxxxxxxxx


------------------------------------------------------------------------ <-- SCF
SCF loop      Energy           Fermi           Energy gain       Timer   <-- SCF
                               energy          per atom          (sec)   <-- SCF
------------------------------------------------------------------------ <-- SCF
Initial  -3.14385399E+004  0.00000000E+000                       942.91  <-- SCF
      1  -3.14385561E+004  3.41329762E+000   5.06833855E-004     965.70  <-- SCF
      2  -3.14385575E+004  3.41329731E+000   4.33282057E-005     993.93  <-- SCF
      3  -3.14385575E+004  3.41326558E+000   5.45506573E-007    1017.37  <-- SCF
      4  -3.14385575E+004  3.41324990E+000   2.36981875E-007    1039.62  <-- SCF
      5  -3.14385575E+004  3.41325002E+000   1.41942954E-008    1056.14  <-- SCF
      6  -3.14385575E+004  3.41324809E+000   3.46828587E-009    1072.54  <-- SCF
      7  -3.14385575E+004  3.41324508E+000   5.62064167E-010    1088.96  <-- SCF
------------------------------------------------------------------------ <-- SCF
 
Final energy, E             =  -31438.55746855     eV
Final free energy (E-TS)    =  -31438.55754740     eV
(energies not corrected for finite basis set)
 
NB est. 0K energy (E-0.5TS)      =  -31438.55750797     eV
 

 ******************************** Constrained Forces ********************************
 *                                                                                  *
 *                           Cartesian components (eV/A)                            *
 * -------------------------------------------------------------------------------- *
 *                         x                    y                    z              *
 *                                                                                  *
 * P               1      0.00000(cons'd)      0.00000(cons'd)     -0.00205         *
 * P               2      0.00000(cons'd)      0.00000(cons'd)      0.01808         *
 * P               3      0.00000(cons'd)      0.00000(cons'd)     -0.01641         *
 * P               4      0.00000(cons'd)     -0.00000(cons'd)     -0.00947         *
 * P               5      0.00000(cons'd)      0.00000(cons'd)      0.01006         *
 * P               6      0.00000(cons'd)     -0.00000(cons'd)     -0.00947         *
 * P               7      0.00000(cons'd)      0.00000(cons'd)     -0.00122         *
 * P               8     -0.00000(cons'd)      0.00000(cons'd)      0.01006         *
 * P               9      0.00000(cons'd)     -0.00000(cons'd)     -0.00122         *
 * P              10      0.00000(cons'd)      0.00000(cons'd)      0.00036         *
 * P              11      0.00000(cons'd)      0.00000(cons'd)     -0.00205         *
 * P              12      0.00000(cons'd)      0.00000(cons'd)      0.00036         *
 * P              13      0.00000(cons'd)      0.00000(cons'd)      0.00098         *
 * P              14      0.00000(cons'd)     -0.00000(cons'd)      0.00098         *
 * P              15      0.00000(cons'd)      0.00000(cons'd)     -0.01641         *
 * P              16      0.00000(cons'd)      0.00000(cons'd)      0.01807         *
 * In              1      0.00000(cons'd)      0.00000(cons'd)      0.00188         *
 * In              2      0.00000(cons'd)     -0.00000(cons'd)     -0.00621         *
 * In              3      0.00000(cons'd)      0.00000(cons'd)      0.00300         *
 * In              4      0.00000(cons'd)      0.00000(cons'd)     -0.00621         *
 * In              5      0.00000(cons'd)      0.00000(cons'd)      0.00299         *
 * In              6      0.00000(cons'd)      0.00000(cons'd)     -0.00144         *
 * In              7      0.00000(cons'd)      0.00000(cons'd)     -0.00144         *
 * In              8      0.00000(cons'd)     -0.00000(cons'd)      0.00431         *
 * In              9      0.00000(cons'd)      0.00000(cons'd)      0.00187         *
 * In             10      0.00000(cons'd)      0.00000(cons'd)     -0.00423         *
 * In             11      0.00000(cons'd)      0.00000(cons'd)      0.00743         *
 * In             12      0.00000(cons'd)      0.00000(cons'd)      0.00432         *
 * In             13      0.00000(cons'd)      0.00000(cons'd)     -0.00423         *
 * In             14      0.00000(cons'd)      0.00000(cons'd)      0.00740         *
 * In             15      0.00000(cons'd)      0.00000(cons'd)     -0.00505         *
 * In             16      0.00000(cons'd)      0.00000(cons'd)     -0.00504         *
 *                                                                                  *
 ************************************************************************************
  
 +------------+-------------+-------------+-----------------+ <-- min LBFGS
 |    Step    |   lambda    |   F.delta'  |    enthalpy     | <-- min LBFGS
 +------------+-------------+-------------+-----------------+ <-- min LBFGS
 |  previous  |    0.000000 |    0.035528 |   -31438.557133 | <-- min LBFGS
 | trial step |    1.000000 |    0.013871 |   -31438.557547 | <-- min LBFGS
 +------------+-------------+-------------+-----------------+ <-- min LBFGS
  

--------------------------------------------------------------------------------
 LBFGS: improving iteration         2 with line minimization (lambda=  1.640505)
--------------------------------------------------------------------------------

                           -------------------------------
                                     Cell Contents
                           -------------------------------

            xxxxxxxxxxxxxxxxxxxxxxxxxxxxxxxxxxxxxxxxxxxxxxxxxxxxxxxxxxxxxxxxx
            x  Element         Atom        Fractional coordinates of atoms  x
            x                 Number           u          v          w      x
            x---------------------------------------------------------------x
            x  P                 1         0.750000   0.456722   0.375081   x
            x  P                 2         0.250000   0.250584  -0.005061   x
            x  P                 3         0.750000   0.398464   0.879978   x
            x  P                 4         0.750000   0.485742   0.123569   x
            x  P                 5         0.250000   0.663307   0.751338   x
            x  P                 6         0.750000  -0.014258   0.123569   x
            x  P                 7         0.250000   0.221356   0.248250   x
            x  P                 8         0.250000   0.163307   0.751338   x
            x  P                 9         0.250000   0.721356   0.248250   x
            x  P                10         0.750000  -0.072328   0.626846   x
            x  P                11         0.750000  -0.043279   0.375081   x
            x  P                12         0.750000   0.427672   0.626846   x
            x  P                13         0.250000   0.192309   0.499987   x
            x  P                14         0.250000   0.692309   0.499987   x
            x  P                15         0.750000  -0.101536   0.879978   x
            x  P                16         0.250000   0.750584  -0.005061   x
            x  In                1         0.500000   0.206842   0.374038   x
            x  In                2         0.000000   0.413079   0.753315   x
            x  In                3         0.500000   0.677826   0.625509   x
            x  In                4         0.000000  -0.086921   0.753315   x
            x  In                5         0.500000   0.177826   0.625510   x
            x  In                6         0.000000  -0.057813   0.501047   x
            x  In                7         0.000000   0.442187   0.501047   x
            x  In                8         0.500000   0.648827   0.876836   x
            x  In                9         0.500000   0.706842   0.374038   x
            x  In               10         0.000000   0.471212   0.249499   x
            x  In               11         0.500000   0.735960   0.121684   x
            x  In               12         0.500000   0.148827   0.876836   x
            x  In               13         0.000000  -0.028788   0.249499   x
            x  In               14         0.500000   0.235959   0.121684   x
            x  In               15         0.000000   0.000221  -0.001915   x
            x  In               16         0.000000   0.500221  -0.001915   x
            xxxxxxxxxxxxxxxxxxxxxxxxxxxxxxxxxxxxxxxxxxxxxxxxxxxxxxxxxxxxxxxxx


------------------------------------------------------------------------ <-- SCF
SCF loop      Energy           Fermi           Energy gain       Timer   <-- SCF
                               energy          per atom          (sec)   <-- SCF
------------------------------------------------------------------------ <-- SCF
Initial  -3.14385497E+004  0.00000000E+000                      1106.64  <-- SCF
      1  -3.14385571E+004  3.41318849E+000   2.30708542E-004    1129.43  <-- SCF
      2  -3.14385576E+004  3.41318836E+000   1.77713282E-005    1157.70  <-- SCF
      3  -3.14385576E+004  3.41316759E+000   2.22433946E-007    1180.22  <-- SCF
      4  -3.14385576E+004  3.41315671E+000   9.62891131E-008    1200.87  <-- SCF
      5  -3.14385576E+004  3.41315652E+000   6.20996798E-009    1217.30  <-- SCF
      6  -3.14385576E+004  3.41315498E+000   1.48511003E-009    1233.77  <-- SCF
------------------------------------------------------------------------ <-- SCF
 
Final energy, E             =  -31438.55755262     eV
Final free energy (E-TS)    =  -31438.55763159     eV
(energies not corrected for finite basis set)
 
NB est. 0K energy (E-0.5TS)      =  -31438.55759211     eV
 

 ******************************** Constrained Forces ********************************
 *                                                                                  *
 *                           Cartesian components (eV/A)                            *
 * -------------------------------------------------------------------------------- *
 *                         x                    y                    z              *
 *                                                                                  *
 * P               1      0.00000(cons'd)     -0.00000(cons'd)     -0.00625         *
 * P               2      0.00000(cons'd)      0.00000(cons'd)      0.02076         *
 * P               3      0.00000(cons'd)      0.00000(cons'd)     -0.01837         *
 * P               4      0.00000(cons'd)      0.00000(cons'd)     -0.00681         *
 * P               5     -0.00000(cons'd)      0.00000(cons'd)      0.00820         *
 * P               6      0.00000(cons'd)     -0.00000(cons'd)     -0.00681         *
 * P               7      0.00000(cons'd)      0.00000(cons'd)     -0.00255         *
 * P               8     -0.00000(cons'd)      0.00000(cons'd)      0.00821         *
 * P               9      0.00000(cons'd)     -0.00000(cons'd)     -0.00255         *
 * P              10      0.00000(cons'd)      0.00000(cons'd)      0.00094         *
 * P              11      0.00000(cons'd)     -0.00000(cons'd)     -0.00626         *
 * P              12      0.00000(cons'd)      0.00000(cons'd)      0.00094         *
 * P              13      0.00000(cons'd)     -0.00000(cons'd)      0.00471         *
 * P              14      0.00000(cons'd)      0.00000(cons'd)      0.00470         *
 * P              15      0.00000(cons'd)      0.00000(cons'd)     -0.01836         *
 * P              16      0.00000(cons'd)     -0.00000(cons'd)      0.02074         *
 * In              1      0.00000(cons'd)      0.00000(cons'd)      0.00434         *
 * In              2      0.00000(cons'd)     -0.00000(cons'd)     -0.00560         *
 * In              3      0.00000(cons'd)      0.00000(cons'd)      0.00510         *
 * In              4      0.00000(cons'd)      0.00000(cons'd)     -0.00560         *
 * In              5      0.00000(cons'd)      0.00000(cons'd)      0.00509         *
 * In              6      0.00000(cons'd)      0.00000(cons'd)     -0.00463         *
 * In              7      0.00000(cons'd)      0.00000(cons'd)     -0.00464         *
 * In              8      0.00000(cons'd)      0.00000(cons'd)     -0.00696         *
 * In              9      0.00000(cons'd)      0.00000(cons'd)      0.00433         *
 * In             10      0.00000(cons'd)      0.00000(cons'd)     -0.00535         *
 * In             11      0.00000(cons'd)      0.00000(cons'd)      0.00603         *
 * In             12      0.00000(cons'd)      0.00000(cons'd)     -0.00694         *
 * In             13      0.00000(cons'd)      0.00000(cons'd)     -0.00535         *
 * In             14      0.00000(cons'd)      0.00000(cons'd)      0.00599         *
 * In             15      0.00000(cons'd)      0.00000(cons'd)      0.00646         *
 * In             16      0.00000(cons'd)      0.00000(cons'd)      0.00647         *
 *                                                                                  *
 ************************************************************************************
  
 +------------+-------------+-------------+-----------------+ <-- min LBFGS
 |    Step    |   lambda    |   F.delta'  |    enthalpy     | <-- min LBFGS
 +------------+-------------+-------------+-----------------+ <-- min LBFGS
 |  previous  |    0.000000 |    0.035528 |   -31438.557133 | <-- min LBFGS
 | trial step |    1.000000 |    0.013871 |   -31438.557547 | <-- min LBFGS
 |  line step |    1.640505 |    0.000252 |   -31438.557632 | <-- min LBFGS
 +------------+-------------+-------------+-----------------+ <-- min LBFGS
  
 LBFGS: finished iteration     2 with enthalpy= -3.14385576E+004 eV
  
 +-----------+-----------------+-----------------+------------+-----+ <-- LBFGS
 | Parameter |      value      |    tolerance    |    units   | OK? | <-- LBFGS
 +-----------+-----------------+-----------------+------------+-----+ <-- LBFGS
 |  dE/ion   |   1.556864E-005 |   2.000000E-005 |         eV | Yes | <-- LBFGS
 |  |F|max   |   2.075828E-002 |   1.000000E-003 |       eV/A | No  | <-- LBFGS
 |  |dR|max  |   7.376102E-003 |   1.000000E-003 |          A | No  | <-- LBFGS
 +-----------+-----------------+-----------------+------------+-----+ <-- LBFGS
  

================================================================================
 Starting LBFGS iteration          3 ...
================================================================================
  
 +------------+-------------+-------------+-----------------+ <-- min LBFGS
 |    Step    |   lambda    |   F.delta'  |    enthalpy     | <-- min LBFGS
 +------------+-------------+-------------+-----------------+ <-- min LBFGS
 |  previous  |    0.000000 |    0.025546 |   -31438.557632 | <-- min LBFGS
 +------------+-------------+-------------+-----------------+ <-- min LBFGS
  

--------------------------------------------------------------------------------
 LBFGS: starting iteration         3 with trial guess (lambda=  1.000000)
--------------------------------------------------------------------------------

                           -------------------------------
                                     Cell Contents
                           -------------------------------

            xxxxxxxxxxxxxxxxxxxxxxxxxxxxxxxxxxxxxxxxxxxxxxxxxxxxxxxxxxxxxxxxx
            x  Element         Atom        Fractional coordinates of atoms  x
            x                 Number           u          v          w      x
            x---------------------------------------------------------------x
            x  P                 1         0.750000   0.456725   0.375049   x
            x  P                 2         0.250000   0.250571  -0.004945   x
            x  P                 3         0.750000   0.398476   0.879879   x
            x  P                 4         0.750000   0.485746   0.123532   x
            x  P                 5         0.250000   0.663303   0.751378   x
            x  P                 6         0.750000  -0.014254   0.123532   x
            x  P                 7         0.250000   0.221356   0.248249   x
            x  P                 8         0.250000   0.163302   0.751378   x
            x  P                 9         0.250000   0.721356   0.248249   x
            x  P                10         0.750000  -0.072328   0.626842   x
            x  P                11         0.750000  -0.043275   0.375049   x
            x  P                12         0.750000   0.427672   0.626842   x
            x  P                13         0.250000   0.192307   0.500003   x
            x  P                14         0.250000   0.692307   0.500003   x
            x  P                15         0.750000  -0.101525   0.879879   x
            x  P                16         0.250000   0.750571  -0.004945   x
            x  In                1         0.500000   0.206842   0.374038   x
            x  In                2         0.000000   0.413085   0.753260   x
            x  In                3         0.500000   0.677822   0.625542   x
            x  In                4         0.000000  -0.086915   0.753260   x
            x  In                5         0.500000   0.177822   0.625542   x
            x  In                6         0.000000  -0.057812   0.501037   x
            x  In                7         0.000000   0.442188   0.501037   x
            x  In                8         0.500000   0.648823   0.876867   x
            x  In                9         0.500000   0.706842   0.374038   x
            x  In               10         0.000000   0.471216   0.249458   x
            x  In               11         0.500000   0.735952   0.121748   x
            x  In               12         0.500000   0.148823   0.876867   x
            x  In               13         0.000000  -0.028784   0.249458   x
            x  In               14         0.500000   0.235952   0.121748   x
            x  In               15         0.000000   0.000224  -0.001937   x
            x  In               16         0.000000   0.500224  -0.001937   x
            xxxxxxxxxxxxxxxxxxxxxxxxxxxxxxxxxxxxxxxxxxxxxxxxxxxxxxxxxxxxxxxxx


------------------------------------------------------------------------ <-- SCF
SCF loop      Energy           Fermi           Energy gain       Timer   <-- SCF
                               energy          per atom          (sec)   <-- SCF
------------------------------------------------------------------------ <-- SCF
Initial  -3.14385660E+004  0.00000000E+000                      1251.41  <-- SCF
      1  -3.14385577E+004  3.41309731E+000  -2.59351901E-004    1274.35  <-- SCF
      2  -3.14385578E+004  3.41309718E+000   3.68616433E-006    1302.27  <-- SCF
      3  -3.14385578E+004  3.41310865E+000  -3.61542410E-009    1325.28  <-- SCF
      4  -3.14385578E+004  3.41311767E+000   1.65939440E-008    1345.01  <-- SCF
      5  -3.14385578E+004  3.41312035E+000   4.71886414E-009    1361.44  <-- SCF
      6  -3.14385578E+004  3.41312282E+000   4.93038743E-010    1377.85  <-- SCF
------------------------------------------------------------------------ <-- SCF
 
Final energy, E             =  -31438.55770865     eV
Final free energy (E-TS)    =  -31438.55778772     eV
(energies not corrected for finite basis set)
 
NB est. 0K energy (E-0.5TS)      =  -31438.55774819     eV
 

 ******************************** Constrained Forces ********************************
 *                                                                                  *
 *                           Cartesian components (eV/A)                            *
 * -------------------------------------------------------------------------------- *
 *                         x                    y                    z              *
 *                                                                                  *
 * P               1      0.00000(cons'd)     -0.00000(cons'd)     -0.00472         *
 * P               2      0.00000(cons'd)     -0.00000(cons'd)      0.00906         *
 * P               3      0.00000(cons'd)      0.00000(cons'd)     -0.00873         *
 * P               4      0.00000(cons'd)      0.00000(cons'd)     -0.00397         *
 * P               5     -0.00000(cons'd)      0.00000(cons'd)      0.00525         *
 * P               6      0.00000(cons'd)      0.00000(cons'd)     -0.00397         *
 * P               7      0.00000(cons'd)      0.00000(cons'd)      0.00150         *
 * P               8      0.00000(cons'd)      0.00000(cons'd)      0.00525         *
 * P               9      0.00000(cons'd)     -0.00000(cons'd)      0.00151         *
 * P              10      0.00000(cons'd)      0.00000(cons'd)     -0.00260         *
 * P              11      0.00000(cons'd)     -0.00000(cons'd)     -0.00472         *
 * P              12      0.00000(cons'd)      0.00000(cons'd)     -0.00260         *
 * P              13      0.00000(cons'd)     -0.00000(cons'd)      0.00433         *
 * P              14      0.00000(cons'd)      0.00000(cons'd)      0.00433         *
 * P              15      0.00000(cons'd)      0.00000(cons'd)     -0.00873         *
 * P              16      0.00000(cons'd)      0.00000(cons'd)      0.00906         *
 * In              1      0.00000(cons'd)      0.00000(cons'd)      0.00530         *
 * In              2      0.00000(cons'd)      0.00000(cons'd)     -0.00416         *
 * In              3      0.00000(cons'd)      0.00000(cons'd)      0.00471         *
 * In              4      0.00000(cons'd)     -0.00000(cons'd)     -0.00415         *
 * In              5      0.00000(cons'd)      0.00000(cons'd)      0.00470         *
 * In              6      0.00000(cons'd)      0.00000(cons'd)     -0.00522         *
 * In              7      0.00000(cons'd)      0.00000(cons'd)     -0.00522         *
 * In              8      0.00000(cons'd)      0.00000(cons'd)     -0.00314         *
 * In              9      0.00000(cons'd)     -0.00000(cons'd)      0.00530         *
 * In             10      0.00000(cons'd)      0.00000(cons'd)     -0.00469         *
 * In             11      0.00000(cons'd)      0.00000(cons'd)      0.00431         *
 * In             12      0.00000(cons'd)      0.00000(cons'd)     -0.00314         *
 * In             13      0.00000(cons'd)      0.00000(cons'd)     -0.00469         *
 * In             14      0.00000(cons'd)      0.00000(cons'd)      0.00430         *
 * In             15      0.00000(cons'd)      0.00000(cons'd)      0.00277         *
 * In             16      0.00000(cons'd)      0.00000(cons'd)      0.00278         *
 *                                                                                  *
 ************************************************************************************
  
 +------------+-------------+-------------+-----------------+ <-- min LBFGS
 |    Step    |   lambda    |   F.delta'  |    enthalpy     | <-- min LBFGS
 +------------+-------------+-------------+-----------------+ <-- min LBFGS
 |  previous  |    0.000000 |    0.025546 |   -31438.557632 | <-- min LBFGS
 | trial step |    1.000000 |    0.014169 |   -31438.557788 | <-- min LBFGS
 +------------+-------------+-------------+-----------------+ <-- min LBFGS
  

--------------------------------------------------------------------------------
 LBFGS: improving iteration         3 with line minimization (lambda=  2.245433)
--------------------------------------------------------------------------------

                           -------------------------------
                                     Cell Contents
                           -------------------------------

            xxxxxxxxxxxxxxxxxxxxxxxxxxxxxxxxxxxxxxxxxxxxxxxxxxxxxxxxxxxxxxxxx
            x  Element         Atom        Fractional coordinates of atoms  x
            x                 Number           u          v          w      x
            x---------------------------------------------------------------x
            x  P                 1         0.750000   0.456730   0.375009   x
            x  P                 2         0.250000   0.250554  -0.004799   x
            x  P                 3         0.750000   0.398490   0.879756   x
            x  P                 4         0.750000   0.485752   0.123486   x
[...]
 * In             15      0.00000(cons'd)      0.00000(cons'd)      0.00021         *
 * In             16      0.00000(cons'd)      0.00000(cons'd)      0.00021         *
 *                                                                                  *
 ************************************************************************************

 Pseudo atomic calculation performed for P 3s2 3p3

 Converged in 23 iterations to a total energy of -208.0292 eV

 Pseudo atomic calculation performed for In 4d10 5s2 5p1

 Converged in 42 iterations to a total energy of -1747.4500 eV
Charge spilling parameter for spin component 1 = 0.16%

            Orbital Populations       
     Ion    Atom   Orbital             Charge
  -------------------------------------------
      P     1      S                    1.737
      P     1      Px                   1.313
      P     1      Py                   1.312
      P     1      Pz                   1.311
      P     2      S                    1.750
      P     2      Px                   1.304
      P     2      Py                   1.275
      P     2      Pz                   1.323
      P     3      S                    1.750
      P     3      Px                   1.304
      P     3      Py                   1.275
      P     3      Pz                   1.323
      P     4      S                    1.737
      P     4      Px                   1.312
      P     4      Py                   1.313
      P     4      Pz                   1.309
      P     5      S                    1.737
      P     5      Px                   1.312
      P     5      Py                   1.313
      P     5      Pz                   1.309
      P     6      S                    1.737
      P     6      Px                   1.312
      P     6      Py                   1.313
      P     6      Pz                   1.309
      P     7      S                    1.737
      P     7      Px                   1.312
      P     7      Py                   1.311
      P     7      Pz                   1.311
      P     8      S                    1.737
      P     8      Px                   1.312
      P     8      Py                   1.313
      P     8      Pz                   1.309
      P     9      S                    1.737
      P     9      Px                   1.312
      P     9      Py                   1.311
      P     9      Pz                   1.311
      P    10      S                    1.737
      P    10      Px                   1.312
      P    10      Py                   1.311
      P    10      Pz                   1.312
      P    11      S                    1.737
      P    11      Px                   1.313
      P    11      Py                   1.312
      P    11      Pz                   1.311
      P    12      S                    1.737
      P    12      Px                   1.312
      P    12      Py                   1.311
      P    12      Pz                   1.312
      P    13      S                    1.737
      P    13      Px                   1.313
      P    13      Py                   1.312
      P    13      Pz                   1.311
      P    14      S                    1.737
      P    14      Px                   1.313
      P    14      Py                   1.312
      P    14      Pz                   1.311
      P    15      S                    1.750
      P    15      Px                   1.304
      P    15      Py                   1.275
      P    15      Pz                   1.323
      P    16      S                    1.750
      P    16      Px                   1.304
      P    16      Py                   1.275
      P    16      Pz                   1.323
     In     1      Dzz                  1.998
     In     1      Dzy                  1.999
     In     1      Dzx                  1.997
     In     1      Dxx-yy               1.999
     In     1      Dxy                  1.997
     In     1      S                    1.428
     In     1      Px                   0.481
     In     1      Py                   0.482
     In     1      Pz                   0.480
     In     1      S                   -0.527
     In     2      Dzz                  1.998
     In     2      Dzy                  1.999
     In     2      Dzx                  1.997
     In     2      Dxx-yy               1.999
     In     2      Dxy                  1.997
     In     2      S                    1.428
     In     2      Px                   0.482
     In     2      Py                   0.478
     In     2      Pz                   0.482
     In     2      S                   -0.521
     In     3      Dzz                  1.998
     In     3      Dzy                  1.999
     In     3      Dzx                  1.997
     In     3      Dxx-yy               1.999
     In     3      Dxy                  1.997
     In     3      S                    1.430
     In     3      Px                   0.480
     In     3      Py                   0.482
     In     3      Pz                   0.479
     In     3      S                   -0.532
     In     4      Dzz                  1.998
     In     4      Dzy                  1.999
     In     4      Dzx                  1.997
     In     4      Dxx-yy               1.999
     In     4      Dxy                  1.997
     In     4      S                    1.428
     In     4      Px                   0.482
     In     4      Py                   0.478
     In     4      Pz                   0.482
     In     4      S                   -0.521
     In     5      Dzz                  1.998
     In     5      Dzy                  1.999
     In     5      Dzx                  1.997
     In     5      Dxx-yy               1.999
     In     5      Dxy                  1.997
     In     5      S                    1.430
     In     5      Px                   0.480
     In     5      Py                   0.482
     In     5      Pz                   0.479
     In     5      S                   -0.532
     In     6      Dzz                  1.998
     In     6      Dzy                  1.999
     In     6      Dzx                  1.997
     In     6      Dxx-yy               1.999
     In     6      Dxy                  1.997
     In     6      S                    1.428
     In     6      Px                   0.480
     In     6      Py                   0.482
     In     6      Pz                   0.480
     In     6      S                   -0.527
     In     7      Dzz                  1.998
     In     7      Dzy                  1.999
     In     7      Dzx                  1.997
     In     7      Dxx-yy               1.999
     In     7      Dxy                  1.997
     In     7      S                    1.428
     In     7      Px                   0.480
     In     7      Py                   0.482
     In     7      Pz                   0.480
     In     7      S                   -0.527
     In     8      Dzz                  1.998
     In     8      Dzy                  1.999
     In     8      Dzx                  1.998
     In     8      Dxx-yy               1.999
     In     8      Dxy                  1.997
     In     8      S                    1.405
     In     8      Px                   0.474
     In     8      Py                   0.487
     In     8      Pz                   0.460
     In     8      S                   -0.486
     In     9      Dzz                  1.998
     In     9      Dzy                  1.999
     In     9      Dzx                  1.997
     In     9      Dxx-yy               1.999
     In     9      Dxy                  1.997
     In     9      S                    1.428
     In     9      Px                   0.481
     In     9      Py                   0.482
     In     9      Pz                   0.480
     In     9      S                   -0.527
     In    10      Dzz                  1.998
     In    10      Dzy                  1.999
     In    10      Dzx                  1.997
     In    10      Dxx-yy               1.999
     In    10      Dxy                  1.997
     In    10      S                    1.430
     In    10      Px                   0.480
     In    10      Py                   0.482
     In    10      Pz                   0.479
     In    10      S                   -0.532
     In    11      Dzz                  1.998
     In    11      Dzy                  1.999
     In    11      Dzx                  1.997
     In    11      Dxx-yy               1.999
     In    11      Dxy                  1.997
     In    11      S                    1.428
     In    11      Px                   0.481
     In    11      Py                   0.478
     In    11      Pz                   0.482
     In    11      S                   -0.520
     In    12      Dzz                  1.998
     In    12      Dzy                  1.999
     In    12      Dzx                  1.998
     In    12      Dxx-yy               1.999
     In    12      Dxy                  1.997
     In    12      S                    1.405
     In    12      Px                   0.474
     In    12      Py                   0.487
     In    12      Pz                   0.460
     In    12      S                   -0.486
     In    13      Dzz                  1.998
     In    13      Dzy                  1.999
     In    13      Dzx                  1.997
     In    13      Dxx-yy               1.999
     In    13      Dxy                  1.997
     In    13      S                    1.430
     In    13      Px                   0.480
     In    13      Py                   0.482
     In    13      Pz                   0.479
     In    13      S                   -0.532
     In    14      Dzz                  1.998
     In    14      Dzy                  1.999
     In    14      Dzx                  1.997
     In    14      Dxx-yy               1.999
     In    14      Dxy                  1.997
     In    14      S                    1.428
     In    14      Px                   0.481
     In    14      Py                   0.478
     In    14      Pz                   0.482
     In    14      S                   -0.520
     In    15      Dzz                  1.998
     In    15      Dzy                  1.999
     In    15      Dzx                  1.998
     In    15      Dxx-yy               1.999
     In    15      Dxy                  1.997
     In    15      S                    1.405
     In    15      Px                   0.474
     In    15      Py                   0.488
     In    15      Pz                   0.460
     In    15      S                   -0.486
     In    16      Dzz                  1.998
     In    16      Dzy                  1.999
     In    16      Dzx                  1.998
     In    16      Dxx-yy               1.999
     In    16      Dxy                  1.997
     In    16      S                    1.405
     In    16      Px                   0.474
     In    16      Py                   0.488
     In    16      Pz                   0.460
     In    16      S                   -0.486
  -------------------------------------------
                           Total:     288.000
  -------------------------------------------

     Atomic Populations (Mulliken)
     -----------------------------
Species          Ion     s       p       d       f      Total   Charge (e)
==========================================================================
  P               1     1.737   3.937   0.000   0.000   5.674    -0.674
  P               2     1.750   3.902   0.000   0.000   5.652    -0.652
  P               3     1.750   3.902   0.000   0.000   5.652    -0.652
  P               4     1.737   3.934   0.000   0.000   5.671    -0.671
  P               5     1.737   3.934   0.000   0.000   5.671    -0.671
  P               6     1.737   3.934   0.000   0.000   5.671    -0.671
  P               7     1.737   3.934   0.000   0.000   5.672    -0.672
  P               8     1.737   3.934   0.000   0.000   5.671    -0.671
  P               9     1.737   3.934   0.000   0.000   5.672    -0.672
  P              10     1.737   3.934   0.000   0.000   5.672    -0.672
  P              11     1.737   3.937   0.000   0.000   5.674    -0.674
  P              12     1.737   3.934   0.000   0.000   5.672    -0.672
  P              13     1.737   3.937   0.000   0.000   5.674    -0.674
  P              14     1.737   3.937   0.000   0.000   5.674    -0.674
  P              15     1.750   3.902   0.000   0.000   5.652    -0.652
  P              16     1.750   3.902   0.000   0.000   5.652    -0.652
  In              1     0.901   1.443   9.989   0.000  12.333     0.667
  In              2     0.907   1.442   9.989   0.000  12.339     0.661
  In              3     0.898   1.442   9.989   0.000  12.329     0.671
  In              4     0.907   1.442   9.989   0.000  12.339     0.661
  In              5     0.898   1.442   9.989   0.000  12.329     0.671
  In              6     0.901   1.443   9.989   0.000  12.333     0.667
  In              7     0.901   1.443   9.989   0.000  12.333     0.667
  In              8     0.919   1.421   9.990   0.000  12.331     0.669
  In              9     0.901   1.443   9.989   0.000  12.333     0.667
  In             10     0.898   1.442   9.989   0.000  12.329     0.671
  In             11     0.908   1.442   9.990   0.000  12.339     0.661
  In             12     0.919   1.421   9.990   0.000  12.331     0.669
  In             13     0.898   1.442   9.989   0.000  12.329     0.671
  In             14     0.908   1.442   9.990   0.000  12.339     0.661
  In             15     0.920   1.421   9.990   0.000  12.331     0.669
  In             16     0.920   1.421   9.990   0.000  12.331     0.669
==========================================================================

                 Bond                   Population      Length (A)
======================================================================
              P 1  -- In 9                   0.62        2.55535
              P 11 -- In 9                   0.63        2.55535
              P 11 -- In 1                   0.62        2.55535
              P 1  -- In 1                   0.63        2.55535
              P 14 -- In 7                   0.62        2.55535
              P 13 -- In 6                   0.62        2.55535
              P 14 -- In 6                   0.63        2.55535
              P 13 -- In 7                   0.63        2.55535
              P 7  -- In 13                  0.62        2.55537
              P 9  -- In 10                  0.62        2.55537
              P 9  -- In 13                  0.63        2.55537
              P 7  -- In 10                  0.63        2.55537
              P 10 -- In 5                   0.62        2.55538
              P 12 -- In 3                   0.62        2.55538
              P 10 -- In 3                   0.63        2.55538
              P 12 -- In 5                   0.63        2.55538
              P 4  -- In 11                  0.60        2.55544
              P 6  -- In 14                  0.60        2.55544
              P 6  -- In 11                  0.62        2.55544
              P 4  -- In 14                  0.62        2.55544
              P 8  -- In 4                   0.60        2.55546
              P 5  -- In 2                   0.60        2.55546
              P 5  -- In 4                   0.62        2.55546
              P 8  -- In 2                   0.62        2.55546
              P 15 -- In 12                  0.66        2.55572
              P 3  -- In 8                   0.66        2.55572
              P 15 -- In 8                   0.60        2.55572
              P 16 -- In 16                  0.66        2.55572
              P 2  -- In 15                  0.66        2.55572
              P 16 -- In 15                  0.60        2.55572
              P 3  -- In 12                  0.60        2.55572
              P 2  -- In 16                  0.60        2.55572
              P 4  -- In 16                  0.63        2.56174
              P 6  -- In 15                  0.63        2.56174
              P 8  -- In 12                  0.63        2.56190
              P 5  -- In 8                   0.63        2.56190
              P 14 -- In 3                   0.61        2.56312
              P 13 -- In 5                   0.61        2.56312
              P 1  -- In 10                  0.61        2.56363
              P 11 -- In 13                  0.61        2.56363
              P 8  -- In 5                   0.61        2.56607
              P 5  -- In 3                   0.61        2.56607
              P 7  -- In 1                   0.61        2.56663
              P 9  -- In 9                   0.61        2.56663
              P 10 -- In 6                   0.61        2.56687
              P 12 -- In 7                   0.61        2.56687
              P 6  -- In 13                  0.61        2.56720
              P 4  -- In 10                  0.61        2.56720
              P 14 -- In 9                   0.61        2.56796
              P 13 -- In 1                   0.61        2.56796
              P 1  -- In 7                   0.61        2.56836
              P 11 -- In 6                   0.61        2.56836
              P 12 -- In 2                   0.59        2.57397
              P 10 -- In 4                   0.59        2.57397
              P 9  -- In 11                  0.59        2.57503
              P 7  -- In 14                  0.59        2.57503
              P 15 -- In 4                   0.60        2.57763
              P 3  -- In 2                   0.60        2.57763
              P 2  -- In 14                  0.59        2.57870
              P 16 -- In 11                  0.59        2.57870
              P 2  -- In 12                  0.53        2.64567
              P 16 -- In 8                   0.53        2.64567
              P 3  -- In 16                  0.53        2.64569
              P 15 -- In 15                  0.53        2.64569
======================================================================


     Hirshfeld Analysis
     ------------------
Species   Ion     Hirshfeld Charge (e)
======================================
  P        1                -0.24
  P        2                -0.24
  P        3                -0.24
  P        4                -0.24
  P        5                -0.24
  P        6                -0.24
  P        7                -0.24
  P        8                -0.24
  P        9                -0.24
  P       10                -0.24
  P       11                -0.24
  P       12                -0.24
  P       13                -0.24
  P       14                -0.24
  P       15                -0.24
  P       16                -0.24
  In       1                 0.24
  In       2                 0.23
  In       3                 0.24
  In       4                 0.23
  In       5                 0.24
  In       6                 0.24
  In       7                 0.24
  In       8                 0.25
  In       9                 0.24
  In      10                 0.24
  In      11                 0.23
  In      12                 0.25
  In      13                 0.24
  In      14                 0.23
  In      15                 0.25
  In      16                 0.25
======================================

 
 A BibTeX formatted list of references used in this run has been written to 
 StackingFaultStructs_(1_1_0)_(1_-1_0)_2.bib
 
Initialisation time =     20.43 s
Calculation time    =   2086.70 s
Finalisation time   =      1.69 s
Total time          =   2108.81 s
Peak Memory Use     = 2774016 kB
 
Overall parallel efficiency rating: Mediocre (57%)
 
Data was distributed by:-
G-vector (6-way); efficiency rating: Mediocre (59%)
k-point (40-way); efficiency rating: Excellent (92%)
