 +-------------------------------------------------+
 |                                                 |
 |      CCC   AA    SSS  TTTTT  EEEEE  PPPP        |
 |     C     A  A  S       T    E      P   P       |
 |     C     AAAA   SS     T    EEE    PPPP        |
 |     C     A  A     S    T    E      P           |
 |      CCC  A  A  SSS     T    EEEEE  P           |
 |                                                 |
 +-------------------------------------------------+
 |                                                 |
 | Welcome to Academic Release CASTEP version 24.1 |
 | Ab Initio Total Energy Program                  |
 |                                                 |
 | Authors:                                        |
 | M. Segall, M. Probert, C. Pickard, P. Hasnip,   |
 | S. Clark, K. Refson, J. R. Yates,               |
 | A. Bartok-Partay, M. Payne                      |
 |                                                 |
 | Contributors:                                   |
 | P. Lindan, P. Haynes, J. White, V. Milman,      |
 | N. Govind, M. Gibson, P. Tulip, V. Cocula,      |
 | B. Montanari, D. Quigley, M. Glover,            |
 | L. Bernasconi, A. Perlov, M. Plummer,           |
 | E. McNellis, J. Meyer, J. Gale, D. Jochym       |
 | J. Aarons, B. Walker, R. Gillen, D. Jones       |
 | T. Green, I. J. Bush, C. J. Armstrong,          |
 | E. J. Higgins, E. L. Brown, M. S. McFly,        |
 | J. Wilkins, B-C. Shih, P. J. P. Byrne,          |
 | R. J. Maurer, J. C. Womack, J. Dziedzic,        |
 | L. LeBlanc, T. K. Stenczel, J. Kermode,         |
 | S. Sturniolo, B. Shi, B. Durham, M. Evans,      |
 | M. J. Smith, A. Tamerus, Z. Hawkhead,           |
 | V. Ravindran, T. Hollins, S. A. Joyce,          |
 | R. T. Strong, A. M. Reilly, S. J. Donaldson     |
 |                                                 |
 | Copyright (c) 2000 - 2023                       |
 |                                                 |
 |     Distributed under license from Cambridge    |
 |     Enterprise for academic use only.           |
 |                                                 |
 | Please cite                                     |
 |                                                 |
 |     "First principles methods using CASTEP"     |
 |                                                 |
 |         Zeitschrift fuer Kristallographie       |
 |           220(5-6) pp. 567-570 (2005)           |
 |                                                 |
 | S. J. Clark, M. D. Segall, C. J. Pickard,       |
 | P. J. Hasnip, M. J. Probert, K. Refson,         |
 | M. C. Payne                                     |
 |                                                 |
 |       in all publications arising from          |
 |              your use of CASTEP                 |
 |                                                 |
 +-------------------------------------------------+
 |                                                 |
 |              http://www.castep.org              |
 |                                                 |
 +-------------------------------------------------+



 Compiled for  GNU 11.2.0 on 04-04-2024 18:39:17
 from code version 6355fd106 Castep241_branch Thu Mar 7 17:56:19 2024 +0000
 Compiler: GNU Fortran 11.2.0; Optimisation: FAST
 Comms   : MPI VERSION : CRAY MPICH version 8.1.23.14 (ANL base 3.4a2)
 MATHLIBS: default (LAPACK version 3.10.1)
 FFT Lib : fftw3 version commercial-fftw-3.3.10-sse2-avx-avx2-avx2_128
 Fundamental constants values: CODATA 2018

 Run started: Tue, 29 Apr 2025 18:59:37 +0100

 Atomic calculation performed for P: 1s2 2s2 2p6 3s2 3p3

 Converged in 47 iterations to an ae energy of -9309.074 eV

   ============================================================                
   | Pseudopotential Report - Date of generation 29-04-2025   |                
   ------------------------------------------------------------                
   | Element: P Ionic charge:  5.00 Level of theory: RSCAN    |                
   | Atomic Solver: Koelling-Harmon                           |                
   |                                                          |                
   |               Reference Electronic Structure             |                
   |         Orbital         Occupation         Energy        |                
   |            3s              2.000           -0.535        |                
   |            3p              3.000           -0.209        |                
   |                                                          |                
   |                 Pseudopotential Definition               |                
   |        Beta     l      e      Rc     scheme   norm       |                
   |          1      0   -0.535   1.807     qc      0         |                
   |          2      0    0.250   1.807     qc      0         |                
   |          3      1   -0.209   1.807     qc      0         |                
   |          4      1    0.250   1.807     qc      0         |                
   |          5      2    0.000   1.807     qc      0         |                
   |          6      2    0.250   1.807     qc      0         |                
   |         loc     3    0.000   1.807     pn      0         |                
   |                                                          |                
   | Augmentation charge Rinner = 1.263                       |                
   | Partial core correction Rc = 1.263                       |                
   ------------------------------------------------------------                
   | "3|1.8|4|4|5|30:31:32"                                   |                
   ------------------------------------------------------------                
   |      Author: Chris J. Pickard, Cambridge University      |                
   ============================================================                
 Warning: otfg_output_psp cannot write out meta-GGA pseudopotentials presently.

 Atomic calculation performed for In:
 1s2 2s2 2p6 3s2 3p6 3d10 4s2 4p6 4d10 5s2 5p1

 Converged in 84 iterations to an ae energy of -160093.328 eV

   ============================================================                
   | Pseudopotential Report - Date of generation 29-04-2025   |                
   ------------------------------------------------------------                
   | Element: In Ionic charge: 13.00 Level of theory: RSCAN   |                
   | Atomic Solver: Koelling-Harmon                           |                
   |                                                          |                
   |               Reference Electronic Structure             |                
   |         Orbital         Occupation         Energy        |                
   |            4d             10.000           -0.711        |                
   |            5s              2.000           -0.313        |                
   |            5p              1.000           -0.095        |                
   |                                                          |                
   |                 Pseudopotential Definition               |                
   |        Beta     l      e      Rc     scheme   norm       |                
   |          1      0   -0.313   2.501     qc      0         |                
   |          2      0    0.250   2.501     qc      0         |                
   |          3      1   -0.095   2.501     qc      0         |                
   |          4      1    0.250   2.501     qc      0         |                
   |          5      2   -0.711   2.207     qc      0         |                
   |          6      2    0.250   2.207     qc      0         |                
   |         loc     3    0.000   2.501     pn      0         |                
   |                                                          |                
   | Augmentation charge Rinner = 1.504                       |                
   | Partial core correction Rc = 1.504                       |                
   ------------------------------------------------------------                
   | "3|2.5|2.5|1.5|7|8|9|50:51:42U2.2U2.2"                   |                
   ------------------------------------------------------------                
   |      Author: Chris J. Pickard, Cambridge University      |                
   ============================================================                
 Warning: otfg_output_psp cannot write out meta-GGA pseudopotentials presently.

 Pseudo atomic calculation performed for P 3s2 3p3

 Converged in 23 iterations to a total energy of -208.0292 eV

 Pseudo atomic calculation performed for In 4d10 5s2 5p1

 Converged in 42 iterations to a total energy of -1747.4501 eV
 Calculation parallelised over 120 processes.
 Data is distributed by G-vector(6-way) and k-point(20-way)
 Each process may use up to 16 threads.

 ************************************ Title ************************************
 

 ***************************** General Parameters ******************************
  
 output verbosity                               : normal  (1)
 write checkpoint data to                       : 90deg_Singlepoints_3.check
 type of calculation                            : single point energy
 stress calculation                             : off
 density difference calculation                 : off
 electron localisation func (ELF) calculation   : off
 Hirshfeld analysis                             : on
 polarisation (Berry phase) analysis            : off
 molecular orbital projected DOS                : off
 deltaSCF calculation                           : off
 unlimited duration calculation
 timing information                             : on
 memory usage estimate                          : on
 write extra output files                       : on
 write final potential to formatted file        : off
 write final density to formatted file          : off
 write BibTeX reference list                    : on
 write OTFG pseudopotential files               : on
 write electrostatic potential file             : on
 write bands file                               : on
 checkpoint writing                             : off
  
 output         length unit                     : A
 output           mass unit                     : amu
 output           time unit                     : ps
 output         charge unit                     : e
 output           spin unit                     : hbar/2
 output         energy unit                     : eV
 output          force unit                     : eV/A
 output       velocity unit                     : A/ps
 output       pressure unit                     : GPa
 output     inv_length unit                     : 1/A
 output      frequency unit                     : cm-1
 output force constant unit                     : eV/A**2
 output         volume unit                     : A**3
 output   IR intensity unit                     : (D/A)**2/amu
 output         dipole unit                     : D
 output         efield unit                     : eV/A/e
 output        entropy unit                     : J/mol/K
 output    efield chi2 unit                     : pm/V
  
 wavefunctions paging                           : none
 random number generator seed                   :  185937952
 data distribution                              : optimal for this architecture
 optimization strategy                          : balance speed and memory

 *********************** Exchange-Correlation Parameters ***********************
  
 using functional                               : RSCAN
 relativistic treatment                         : Koelling-Harmon
 DFT+D: Semi-empirical dispersion correction    : off

 ************************* Pseudopotential Parameters **************************
  
 pseudopotential representation                 : reciprocal space
 <beta|phi> representation                      : reciprocal space
 spin-orbit coupling                            : off

 **************************** Basis Set Parameters *****************************
  
 plane wave basis set cut-off                   :   900.0000   eV
 size of standard grid                          :     2.0000
 size of   fine   gmax                          :    30.7390   1/A
 finite basis set correction                    : none

 **************************** Electronic Parameters ****************************
  
 number of  electrons                           :  864.0    
 net charge of system                           :  0.000    
 treating system as non-spin-polarized
 number of bands                                :        518

 ********************* Electronic Minimization Parameters **********************
  
 Method: Treating system as metallic with density mixing treatment of electrons,
         and number of  SD  steps               :          1
         and number of  CG  steps               :          4
  
 total energy / atom convergence tol.           : 0.1000E-07   eV
 eigen-energy convergence tolerance             : 0.2222E-08   eV
 max force / atom convergence tol.              : ignored
 convergence tolerance window                   :          3   cycles
 max. number of SCF cycles                      :        100
 number of fixed-spin iterations                :         10
 smearing scheme                                : Gaussian
 smearing width                                 : 0.2000       eV
 Fermi energy convergence tolerance             : 0.2721E-13   eV
 periodic dipole correction                     : NONE

 ************************** Density Mixing Parameters **************************
  
 density-mixing scheme                          : Pulay
 max. length of mixing history                  :         20
 charge density mixing amplitude                : 0.5000    
 cut-off energy for mixing                      :  900.0       eV

 *********************** Population Analysis Parameters ************************
  
 Population analysis with cutoff                :  3.000       A
 Population analysis output                     : summary and pdos components

 *******************************************************************************
  

                           -------------------------------
                                      Unit Cell
                           -------------------------------
        Real Lattice(A)                      Reciprocal Lattice(1/A)
    14.4540490    20.4411120     0.0000000        0.217350353   0.153689910   0.000000000
    14.4540490   -20.4411120     0.0000000        0.217350353  -0.153689910   0.000000000
     0.0000000     0.0000000     4.1725250        0.000000000   0.000000000   1.505847252

                       Lattice parameters(A)       Cell Angles
                    a =     25.035147          alpha =   90.000000
                    b =     25.035147          beta  =   90.000000
                    c =      4.172525          gamma =  109.471220

                       Current cell volume =          2465.602056       A**3
                                   density =             2.838254   AMU/A**3
                                           =             4.713031     g/cm^3

                           -------------------------------
                                     Cell Contents
                           -------------------------------
                         Total number of ions in cell =   96
                      Total number of species in cell =    2
                        Max number of any one species =   48

            xxxxxxxxxxxxxxxxxxxxxxxxxxxxxxxxxxxxxxxxxxxxxxxxxxxxxxxxxxxx
            x  Element    Atom        Fractional coordinates of atoms  x
            x            Number           u          v          w      x
            x----------------------------------------------------------x
            x  P            1         0.274239   0.308159   0.144659   x 
            x  P            2         0.201969   0.234553   0.345923   x 
            x  P            3         0.379751   0.240169   0.535862   x 
            x  P            4         0.508033   0.364727   0.031748   x 
            x  P            5         0.410335   0.104463   0.016840   x 
            x  P            6         0.538237   0.227913   0.515338   x 
            x  P            7         0.572626   0.094463   0.010551   x 
            x  P            8         0.448120   0.970968   0.511545   x 
            x  P            9         0.609963   0.961241   0.509911   x 
            x  P           10         0.734752   0.086388   0.000595   x 
            x  P           11         0.644077   0.827474   0.011956   x 
            x  P           12         0.774314   0.955509   0.498356   x 
            x  P           13         0.534205   0.555761   0.032470   x 
            x  P           14         0.406111   0.429134   0.561298   x 
            x  P           15         0.633042   0.488407   0.522029   x 
            x  P           16         0.756929   0.609930   0.009231   x 
            x  P           17         0.664307   0.352039   0.009483   x 
            x  P           18         0.790277   0.475839   0.500719   x 
            x  P           19         0.822254   0.343105  -0.004139   x 
            x  P           20         0.697920   0.218425   0.504318   x 
            x  P           21         0.858787   0.212626   0.489566   x 
            x  P           22         0.981396   0.336854  -0.018717   x 
            x  P           23         0.899115   0.085365  -0.019284   x 
            x  P           24         0.021599   0.209970   0.471699   x 
            x  P           25         0.799390   0.817023  -0.001052   x 
            x  P           26         0.661355   0.681808   0.517828   x 
            x  P           27         0.886929   0.721431   0.496417   x 
            x  P           28         0.000316   0.851332  -0.019491   x 
            x  P           29         0.918435   0.595133  -0.007885   x 
            x  P           30         0.042775   0.723251   0.483019   x 
            x  P           31         0.075166   0.593895  -0.016748   x 
            x  P           32         0.949371   0.466065   0.489013   x 
            x  P           33         0.106287   0.464492   0.474208   x 
            x  P           34         0.232325   0.587445   0.008400   x 
            x  P           35         0.138089   0.336832  -0.054421   x 
            x  P           36         0.263300   0.455733   0.537879   x 
            x  P           37         0.076862   0.097956  -0.055445   x 
            x  P           38         0.947901   0.967426   0.465661   x 
            x  P           39         0.123847   0.978899   0.473397   x 
            x  P           40         0.249806   0.108586  -0.035693   x 
            x  P           41         0.163132   0.850180  -0.014436   x 
            x  P           42         0.286902   0.976790   0.488514   x 
            x  P           43         0.323876   0.845139   0.001217   x 
            x  P           44         0.200666   0.719392   0.495962   x 
            x  P           45         0.357867   0.711288   0.512073   x 
            x  P           46         0.483149   0.836976   0.014701   x 
            x  P           47         0.388615   0.576304   0.027883   x 
            x  P           48         0.514804   0.701630   0.523432   x 
            x  In           1         0.239954   0.393986   0.040665   x 
            x  In           2         0.122156   0.276536   0.439927   x 
            x  In           3         0.339402   0.321781   0.620241   x 
            x  In           4         0.468469   0.448259   0.056745   x 
            x  In           5         0.354038   0.175398   0.026535   x 
            x  In           6         0.485355   0.300297   0.529214   x 
            x  In           7         0.515419   0.163844   0.014775   x 
            x  In           8         0.390773   0.040180   0.514379   x 
            x  In           9         0.552898   0.030668   0.510666   x 
            x  In          10         0.677050   0.154776   0.004549   x 
            x  In          11         0.587638   0.897178   0.010756   x 
            x  In          12         0.714532   0.022666   0.501224   x 
            x  In          13         0.491934   0.637065   0.025543   x 
            x  In          14         0.367377   0.512661   0.530006   x 
            x  In          15         0.595284   0.573090   0.530445   x 
            x  In          16         0.721265   0.695922   0.016687   x 
            x  In          17         0.612307   0.424608   0.021974   x 
            x  In          18         0.736983   0.546539   0.509489   x 
            x  In          19         0.767725   0.412648   0.000803   x 
            x  In          20         0.642440   0.288241   0.509259   x 
            x  In          21         0.801494   0.280074   0.495980   x 
            x  In          22         0.925491   0.404172  -0.010840   x 
            x  In          23         0.838263   0.149921  -0.010277   x 
            x  In          24         0.962193   0.274848   0.481068   x 
            x  In          25         0.747091   0.892457  -0.000146   x 
            x  In          26         0.618764   0.762729   0.513612   x 
            x  In          27         0.834167   0.787589   0.498549   x 
            x  In          28         0.929429   0.905203  -0.033008   x 
            x  In          29         0.861547   0.660230  -0.002733   x 
            x  In          30         0.987613   0.790457   0.481660   x 
            x  In          31         0.020063   0.661635  -0.016747   x 
            x  In          32         0.894369   0.533731   0.492532   x 
            x  In          33         0.051245   0.532254   0.482471   x 
            x  In          34         0.178214   0.656890  -0.003647   x 
            x  In          35         0.082467   0.403341  -0.028789   x 
            x  In          36         0.209483   0.525277   0.509154   x 
            x  In          37         1.003446   0.148349  -0.027970   x 
            x  In          38         0.878367   0.022767   0.481081   x 
            x  In          39         0.054657   0.034568   0.449285   x 
            x  In          40         0.181940   0.165262  -0.120207   x 
            x  In          41         0.104563   0.916619  -0.024400   x 
            x  In          42         0.228461   0.044023   0.466619   x 
            x  In          43         0.266719   0.913495  -0.010960   x 
            x  In          44         0.145254   0.787673   0.486379   x 
            x  In          45         0.303918   0.781897   0.501634   x 
            x  In          46         0.427632   0.907302   0.011064   x 
            x  In          47         0.335821   0.647970   0.012947   x 
            x  In          48         0.461303   0.773119   0.515416   x 
            xxxxxxxxxxxxxxxxxxxxxxxxxxxxxxxxxxxxxxxxxxxxxxxxxxxxxxxxxxxx


                         No user defined ionic velocities

                           -------------------------------
                                   Details of Species
                           -------------------------------

                               Mass of species in AMU
                                    P   30.9737600
                                    In  114.8180000

                          Electric Quadrupole Moment (Barn)
                                    P    1.0000000 No Isotope Defined
                                    In    0.7700000 Isotope115

                          Files used for pseudopotentials:
                                    P 3|1.8|4|4|5|30:31:32
                                    In 3|2.5|2.5|1.5|7|8|9|50:51:42U2.2U2.2

                           -------------------------------
                              k-Points For BZ Sampling
                           -------------------------------
                       MP grid size for SCF calculation is  2  2  8
                            with an offset of   0.250  0.250  0.062
                       Number of kpoints used =            20

                           -------------------------------
                               Symmetry and Constraints
                           -------------------------------

                      Maximum deviation from symmetry =  0.00000         ANG

                      Number of symmetry operations   =           1
                      Number of ionic constraints     =           3
                      Point group of crystal =     1: C1, 1, 1
                      Space group of crystal =     1: P1, P 1

             Set iprint > 1 for details on symmetry rotations/translations

                         Centre of mass is constrained
             Set iprint > 1 for details of linear ionic constraints

                         Number of cell constraints= 0
                         Cell constraints are:  1 2 3 4 5 6

                         External pressure/stress (GPa)
                          0.00000   0.00000   0.00000
                                    0.00000   0.00000
                                              0.00000
 
+---------------- MEMORY AND SCRATCH DISK ESTIMATES PER PROCESS --------------+
|                                                     Memory          Disk    |
| Baseline code, static data and system overhead      368.0 MB         0.0 MB |
| BLAS internal memory storage                          0.0 MB         0.0 MB |
| Model and support data                             3663.9 MB         0.0 MB |
| Electronic energy minimisation requirements         956.3 MB         0.0 MB |
| Force calculation requirements                       70.0 MB         0.0 MB |
|                                               ----------------------------- |
| Approx. total storage required per process         4988.2 MB         0.0 MB |
|                                                                             |
| Requirements will fluctuate during execution and may exceed these estimates |
+-----------------------------------------------------------------------------+
Calculating approximate eigenstates for fixed initial Hamiltonian
Cut-off for approx. calculation is   89.988 eV
Improving approx. states at cut-off of  450.000 eV
Resetting cut-off to  900.000 eV
Calculating total energy with cut-off of  900.000 eV.
------------------------------------------------------------------------ <-- SCF
SCF loop      Energy           Fermi           Energy gain       Timer   <-- SCF
                               energy          per atom          (sec)   <-- SCF
------------------------------------------------------------------------ <-- SCF
Initial  -9.45645042E+004  0.00000000E+000                       375.12  <-- SCF
      1  -9.42023472E+004  3.54921644E+000  -3.77246862E+000     718.79  <-- SCF
      2  -9.42027940E+004  3.54872127E+000   4.65388153E-003     958.81  <-- SCF
      3  -9.43025678E+004  3.67187541E+000   1.03931077E+000    1213.49  <-- SCF
      4  -9.43202807E+004  3.71770905E+000   1.84508932E-001    1587.16  <-- SCF
      5  -9.43103895E+004  4.04081365E+000  -1.03032994E-001    1839.58  <-- SCF
      6  -9.43113380E+004  4.11992763E+000   9.88005829E-003    2092.09  <-- SCF
      7  -9.43109785E+004  4.14676572E+000  -3.74445995E-003    2362.58  <-- SCF
      8  -9.43133073E+004  4.13732853E+000   2.42580433E-002    2623.94  <-- SCF
      9  -9.43132655E+004  4.12499566E+000  -4.35188100E-004    2891.11  <-- SCF
     10  -9.43132575E+004  4.12573778E+000  -8.39005472E-005    3161.67  <-- SCF
     11  -9.43132692E+004  4.12459380E+000   1.22088348E-004    3435.76  <-- SCF
     12  -9.43132702E+004  4.12704215E+000   1.02573165E-005    3723.18  <-- SCF
     13  -9.43132700E+004  4.12685885E+000  -1.37603827E-006    4014.38  <-- SCF
 +-------------------------------------------------+
 |                                                 |
 |      CCC   AA    SSS  TTTTT  EEEEE  PPPP        |
 |     C     A  A  S       T    E      P   P       |
 |     C     AAAA   SS     T    EEE    PPPP        |
 |     C     A  A     S    T    E      P           |
 |      CCC  A  A  SSS     T    EEEEE  P           |
 |                                                 |
 +-------------------------------------------------+
 |                                                 |
 | Welcome to Academic Release CASTEP version 24.1 |
 | Ab Initio Total Energy Program                  |
 |                                                 |
 | Authors:                                        |
 | M. Segall, M. Probert, C. Pickard, P. Hasnip,   |
 | S. Clark, K. Refson, J. R. Yates,               |
 | A. Bartok-Partay, M. Payne                      |
 |                                                 |
 | Contributors:                                   |
 | P. Lindan, P. Haynes, J. White, V. Milman,      |
 | N. Govind, M. Gibson, P. Tulip, V. Cocula,      |
 | B. Montanari, D. Quigley, M. Glover,            |
 | L. Bernasconi, A. Perlov, M. Plummer,           |
 | E. McNellis, J. Meyer, J. Gale, D. Jochym       |
 | J. Aarons, B. Walker, R. Gillen, D. Jones       |
 | T. Green, I. J. Bush, C. J. Armstrong,          |
 | E. J. Higgins, E. L. Brown, M. S. McFly,        |
 | J. Wilkins, B-C. Shih, P. J. P. Byrne,          |
 | R. J. Maurer, J. C. Womack, J. Dziedzic,        |
 | L. LeBlanc, T. K. Stenczel, J. Kermode,         |
 | S. Sturniolo, B. Shi, B. Durham, M. Evans,      |
 | M. J. Smith, A. Tamerus, Z. Hawkhead,           |
 | V. Ravindran, T. Hollins, S. A. Joyce,          |
 | R. T. Strong, A. M. Reilly, S. J. Donaldson     |
 |                                                 |
 | Copyright (c) 2000 - 2023                       |
 |                                                 |
 |     Distributed under license from Cambridge    |
 |     Enterprise for academic use only.           |
 |                                                 |
 | Please cite                                     |
 |                                                 |
 |     "First principles methods using CASTEP"     |
 |                                                 |
 |         Zeitschrift fuer Kristallographie       |
 |           220(5-6) pp. 567-570 (2005)           |
 |                                                 |
 | S. J. Clark, M. D. Segall, C. J. Pickard,       |
 | P. J. Hasnip, M. J. Probert, K. Refson,         |
 | M. C. Payne                                     |
 |                                                 |
 |       in all publications arising from          |
 |              your use of CASTEP                 |
 |                                                 |
 +-------------------------------------------------+
 |                                                 |
 |              http://www.castep.org              |
 |                                                 |
 +-------------------------------------------------+



 Compiled for  GNU 11.2.0 on 04-04-2024 18:39:17
 from code version 6355fd106 Castep241_branch Thu Mar 7 17:56:19 2024 +0000
 Compiler: GNU Fortran 11.2.0; Optimisation: FAST
 Comms   : MPI VERSION : CRAY MPICH version 8.1.23.14 (ANL base 3.4a2)
 MATHLIBS: default (LAPACK version 3.10.1)
 FFT Lib : fftw3 version commercial-fftw-3.3.10-sse2-avx-avx2-avx2_128
 Fundamental constants values: CODATA 2018

 Run started: Wed, 30 Apr 2025 02:50:41 +0100

 Atomic calculation performed for P: 1s2 2s2 2p6 3s2 3p3

 Converged in 47 iterations to an ae energy of -9309.074 eV

   ============================================================                
   | Pseudopotential Report - Date of generation 30-04-2025   |                
   ------------------------------------------------------------                
   | Element: P Ionic charge:  5.00 Level of theory: RSCAN    |                
   | Atomic Solver: Koelling-Harmon                           |                
   |                                                          |                
   |               Reference Electronic Structure             |                
   |         Orbital         Occupation         Energy        |                
   |            3s              2.000           -0.535        |                
   |            3p              3.000           -0.209        |                
   |                                                          |                
   |                 Pseudopotential Definition               |                
   |        Beta     l      e      Rc     scheme   norm       |                
   |          1      0   -0.535   1.807     qc      0         |                
   |          2      0    0.250   1.807     qc      0         |                
   |          3      1   -0.209   1.807     qc      0         |                
   |          4      1    0.250   1.807     qc      0         |                
   |          5      2    0.000   1.807     qc      0         |                
   |          6      2    0.250   1.807     qc      0         |                
   |         loc     3    0.000   1.807     pn      0         |                
   |                                                          |                
   | Augmentation charge Rinner = 1.263                       |                
   | Partial core correction Rc = 1.263                       |                
   ------------------------------------------------------------                
   | "3|1.8|4|4|5|30:31:32"                                   |                
   ------------------------------------------------------------                
   |      Author: Chris J. Pickard, Cambridge University      |                
   ============================================================                
 Warning: otfg_output_psp cannot write out meta-GGA pseudopotentials presently.

 Atomic calculation performed for In:
 1s2 2s2 2p6 3s2 3p6 3d10 4s2 4p6 4d10 5s2 5p1

 Converged in 84 iterations to an ae energy of -160093.328 eV

   ============================================================                
   | Pseudopotential Report - Date of generation 30-04-2025   |                
   ------------------------------------------------------------                
   | Element: In Ionic charge: 13.00 Level of theory: RSCAN   |                
   | Atomic Solver: Koelling-Harmon                           |                
   |                                                          |                
   |               Reference Electronic Structure             |                
   |         Orbital         Occupation         Energy        |                
   |            4d             10.000           -0.711        |                
   |            5s              2.000           -0.313        |                
   |            5p              1.000           -0.095        |                
   |                                                          |                
   |                 Pseudopotential Definition               |                
   |        Beta     l      e      Rc     scheme   norm       |                
   |          1      0   -0.313   2.501     qc      0         |                
   |          2      0    0.250   2.501     qc      0         |                
   |          3      1   -0.095   2.501     qc      0         |                
   |          4      1    0.250   2.501     qc      0         |                
   |          5      2   -0.711   2.207     qc      0         |                
   |          6      2    0.250   2.207     qc      0         |                
   |         loc     3    0.000   2.501     pn      0         |                
   |                                                          |                
   | Augmentation charge Rinner = 1.504                       |                
   | Partial core correction Rc = 1.504                       |                
   ------------------------------------------------------------                
   | "3|2.5|2.5|1.5|7|8|9|50:51:42U2.2U2.2"                   |                
   ------------------------------------------------------------                
   |      Author: Chris J. Pickard, Cambridge University      |                
   ============================================================                
 Warning: otfg_output_psp cannot write out meta-GGA pseudopotentials presently.

 Pseudo atomic calculation performed for P 3s2 3p3

 Converged in 23 iterations to a total energy of -208.0292 eV

 Pseudo atomic calculation performed for In 4d10 5s2 5p1

 Converged in 42 iterations to a total energy of -1747.4501 eV
 Calculation parallelised over 120 processes.
 Data is distributed by G-vector(6-way) and k-point(20-way)
 Each process may use up to 16 threads.

 ************************************ Title ************************************
 

 ***************************** General Parameters ******************************
  
 output verbosity                               : normal  (1)
 write checkpoint data to                       : 90deg_Singlepoints_3.check
 type of calculation                            : single point energy
 stress calculation                             : off
 density difference calculation                 : off
 electron localisation func (ELF) calculation   : off
 Hirshfeld analysis                             : on
 polarisation (Berry phase) analysis            : off
 molecular orbital projected DOS                : off
 deltaSCF calculation                           : off
 unlimited duration calculation
 timing information                             : on
 memory usage estimate                          : on
 write extra output files                       : on
 write final potential to formatted file        : off
 write final density to formatted file          : off
 write BibTeX reference list                    : on
 write OTFG pseudopotential files               : on
 write electrostatic potential file             : on
 write bands file                               : on
 checkpoint writing                             : off
  
 output         length unit                     : A
 output           mass unit                     : amu
 output           time unit                     : ps
 output         charge unit                     : e
 output           spin unit                     : hbar/2
 output         energy unit                     : eV
 output          force unit                     : eV/A
 output       velocity unit                     : A/ps
 output       pressure unit                     : GPa
 output     inv_length unit                     : 1/A
 output      frequency unit                     : cm-1
 output force constant unit                     : eV/A**2
 output         volume unit                     : A**3
 output   IR intensity unit                     : (D/A)**2/amu
 output         dipole unit                     : D
 output         efield unit                     : eV/A/e
 output        entropy unit                     : J/mol/K
 output    efield chi2 unit                     : pm/V
  
 wavefunctions paging                           : none
 random number generator seed                   :   25041343
 data distribution                              : optimal for this architecture
 optimization strategy                          : balance speed and memory

 *********************** Exchange-Correlation Parameters ***********************
  
 using functional                               : RSCAN
 relativistic treatment                         : Koelling-Harmon
 DFT+D: Semi-empirical dispersion correction    : off

 ************************* Pseudopotential Parameters **************************
  
 pseudopotential representation                 : reciprocal space
 <beta|phi> representation                      : reciprocal space
 spin-orbit coupling                            : off

 **************************** Basis Set Parameters *****************************
  
 plane wave basis set cut-off                   :   900.0000   eV
 size of standard grid                          :     2.0000
 size of   fine   gmax                          :    30.7390   1/A
 finite basis set correction                    : none

 **************************** Electronic Parameters ****************************
  
 number of  electrons                           :  864.0    
 net charge of system                           :  0.000    
 treating system as non-spin-polarized
 number of bands                                :        518

 ********************* Electronic Minimization Parameters **********************
  
 Method: Treating system as metallic with density mixing treatment of electrons,
         and number of  SD  steps               :          1
         and number of  CG  steps               :          4
  
 total energy / atom convergence tol.           : 0.1000E-07   eV
 eigen-energy convergence tolerance             : 0.2222E-08   eV
 max force / atom convergence tol.              : ignored
 convergence tolerance window                   :          3   cycles
 max. number of SCF cycles                      :        100
 number of fixed-spin iterations                :         10
 smearing scheme                                : Gaussian
 smearing width                                 : 0.2000       eV
 Fermi energy convergence tolerance             : 0.2721E-13   eV
 periodic dipole correction                     : NONE

 ************************** Density Mixing Parameters **************************
  
 density-mixing scheme                          : Pulay
 max. length of mixing history                  :         20
 charge density mixing amplitude                : 0.5000    
 cut-off energy for mixing                      :  900.0       eV

 *********************** Population Analysis Parameters ************************
  
 Population analysis with cutoff                :  3.000       A
 Population analysis output                     : summary and pdos components

 *******************************************************************************
  

                           -------------------------------
                                      Unit Cell
                           -------------------------------
        Real Lattice(A)                      Reciprocal Lattice(1/A)
    14.4540490    20.4411120     0.0000000        0.217350353   0.153689910   0.000000000
    14.4540490   -20.4411120     0.0000000        0.217350353  -0.153689910   0.000000000
     0.0000000     0.0000000     4.1725250        0.000000000   0.000000000   1.505847252

                       Lattice parameters(A)       Cell Angles
                    a =     25.035147          alpha =   90.000000
                    b =     25.035147          beta  =   90.000000
                    c =      4.172525          gamma =  109.471220

                       Current cell volume =          2465.602056       A**3
                                   density =             2.838254   AMU/A**3
                                           =             4.713031     g/cm^3

                           -------------------------------
                                     Cell Contents
                           -------------------------------
                         Total number of ions in cell =   96
                      Total number of species in cell =    2
                        Max number of any one species =   48

            xxxxxxxxxxxxxxxxxxxxxxxxxxxxxxxxxxxxxxxxxxxxxxxxxxxxxxxxxxxx
            x  Element    Atom        Fractional coordinates of atoms  x
            x            Number           u          v          w      x
            x----------------------------------------------------------x
            x  P            1         0.274239   0.308159   0.144659   x 
            x  P            2         0.201969   0.234553   0.345923   x 
            x  P            3         0.379751   0.240169   0.535862   x 
            x  P            4         0.508033   0.364727   0.031748   x 
            x  P            5         0.410335   0.104463   0.016840   x 
            x  P            6         0.538237   0.227913   0.515338   x 
            x  P            7         0.572626   0.094463   0.010551   x 
            x  P            8         0.448120   0.970968   0.511545   x 
            x  P            9         0.609963   0.961241   0.509911   x 
            x  P           10         0.734752   0.086388   0.000595   x 
            x  P           11         0.644077   0.827474   0.011956   x 
            x  P           12         0.774314   0.955509   0.498356   x 
            x  P           13         0.534205   0.555761   0.032470   x 
            x  P           14         0.406111   0.429134   0.561298   x 
            x  P           15         0.633042   0.488407   0.522029   x 
            x  P           16         0.756929   0.609930   0.009231   x 
            x  P           17         0.664307   0.352039   0.009483   x 
            x  P           18         0.790277   0.475839   0.500719   x 
            x  P           19         0.822254   0.343105  -0.004139   x 
            x  P           20         0.697920   0.218425   0.504318   x 
            x  P           21         0.858787   0.212626   0.489566   x 
            x  P           22         0.981396   0.336854  -0.018717   x 
            x  P           23         0.899115   0.085365  -0.019284   x 
            x  P           24         0.021599   0.209970   0.471699   x 
            x  P           25         0.799390   0.817023  -0.001052   x 
            x  P           26         0.661355   0.681808   0.517828   x 
            x  P           27         0.886929   0.721431   0.496417   x 
            x  P           28         0.000316   0.851332  -0.019491   x 
            x  P           29         0.918435   0.595133  -0.007885   x 
            x  P           30         0.042775   0.723251   0.483019   x 
            x  P           31         0.075166   0.593895  -0.016748   x 
            x  P           32         0.949371   0.466065   0.489013   x 
            x  P           33         0.106287   0.464492   0.474208   x 
            x  P           34         0.232325   0.587445   0.008400   x 
            x  P           35         0.138089   0.336832  -0.054421   x 
            x  P           36         0.263300   0.455733   0.537879   x 
            x  P           37         0.076862   0.097956  -0.055445   x 
            x  P           38         0.947901   0.967426   0.465661   x 
            x  P           39         0.123847   0.978899   0.473397   x 
            x  P           40         0.249806   0.108586  -0.035693   x 
            x  P           41         0.163132   0.850180  -0.014436   x 
            x  P           42         0.286902   0.976790   0.488514   x 
            x  P           43         0.323876   0.845139   0.001217   x 
            x  P           44         0.200666   0.719392   0.495962   x 
            x  P           45         0.357867   0.711288   0.512073   x 
            x  P           46         0.483149   0.836976   0.014701   x 
            x  P           47         0.388615   0.576304   0.027883   x 
            x  P           48         0.514804   0.701630   0.523432   x 
            x  In           1         0.239954   0.393986   0.040665   x 
            x  In           2         0.122156   0.276536   0.439927   x 
            x  In           3         0.339402   0.321781   0.620241   x 
            x  In           4         0.468469   0.448259   0.056745   x 
            x  In           5         0.354038   0.175398   0.026535   x 
            x  In           6         0.485355   0.300297   0.529214   x 
            x  In           7         0.515419   0.163844   0.014775   x 
            x  In           8         0.390773   0.040180   0.514379   x 
            x  In           9         0.552898   0.030668   0.510666   x 
            x  In          10         0.677050   0.154776   0.004549   x 
            x  In          11         0.587638   0.897178   0.010756   x 
            x  In          12         0.714532   0.022666   0.501224   x 
            x  In          13         0.491934   0.637065   0.025543   x 
            x  In          14         0.367377   0.512661   0.530006   x 
            x  In          15         0.595284   0.573090   0.530445   x 
            x  In          16         0.721265   0.695922   0.016687   x 
            x  In          17         0.612307   0.424608   0.021974   x 
            x  In          18         0.736983   0.546539   0.509489   x 
            x  In          19         0.767725   0.412648   0.000803   x 
            x  In          20         0.642440   0.288241   0.509259   x 
            x  In          21         0.801494   0.280074   0.495980   x 
            x  In          22         0.925491   0.404172  -0.010840   x 
            x  In          23         0.838263   0.149921  -0.010277   x 
            x  In          24         0.962193   0.274848   0.481068   x 
            x  In          25         0.747091   0.892457  -0.000146   x 
            x  In          26         0.618764   0.762729   0.513612   x 
            x  In          27         0.834167   0.787589   0.498549   x 
            x  In          28         0.929429   0.905203  -0.033008   x 
            x  In          29         0.861547   0.660230  -0.002733   x 
            x  In          30         0.987613   0.790457   0.481660   x 
            x  In          31         0.020063   0.661635  -0.016747   x 
            x  In          32         0.894369   0.533731   0.492532   x 
            x  In          33         0.051245   0.532254   0.482471   x 
            x  In          34         0.178214   0.656890  -0.003647   x 
            x  In          35         0.082467   0.403341  -0.028789   x 
            x  In          36         0.209483   0.525277   0.509154   x 
            x  In          37         1.003446   0.148349  -0.027970   x 
            x  In          38         0.878367   0.022767   0.481081   x 
            x  In          39         0.054657   0.034568   0.449285   x 
            x  In          40         0.181940   0.165262  -0.120207   x 
            x  In          41         0.104563   0.916619  -0.024400   x 
            x  In          42         0.228461   0.044023   0.466619   x 
            x  In          43         0.266719   0.913495  -0.010960   x 
            x  In          44         0.145254   0.787673   0.486379   x 
            x  In          45         0.303918   0.781897   0.501634   x 
            x  In          46         0.427632   0.907302   0.011064   x 
            x  In          47         0.335821   0.647970   0.012947   x 
            x  In          48         0.461303   0.773119   0.515416   x 
            xxxxxxxxxxxxxxxxxxxxxxxxxxxxxxxxxxxxxxxxxxxxxxxxxxxxxxxxxxxx


                         No user defined ionic velocities

                           -------------------------------
                                   Details of Species
                           -------------------------------

                               Mass of species in AMU
                                    P   30.9737600
                                    In  114.8180000

                          Electric Quadrupole Moment (Barn)
                                    P    1.0000000 No Isotope Defined
                                    In    0.7700000 Isotope115

                          Files used for pseudopotentials:
                                    P 3|1.8|4|4|5|30:31:32
                                    In 3|2.5|2.5|1.5|7|8|9|50:51:42U2.2U2.2

                           -------------------------------
                              k-Points For BZ Sampling
                           -------------------------------
                       MP grid size for SCF calculation is  2  2  8
                            with an offset of   0.250  0.250  0.062
                       Number of kpoints used =            20

                           -------------------------------
                               Symmetry and Constraints
                           -------------------------------

                      Maximum deviation from symmetry =  0.00000         ANG

                      Number of symmetry operations   =           1
                      Number of ionic constraints     =           3
                      Point group of crystal =     1: C1, 1, 1
                      Space group of crystal =     1: P1, P 1

             Set iprint > 1 for details on symmetry rotations/translations

                         Centre of mass is constrained
             Set iprint > 1 for details of linear ionic constraints

                         Number of cell constraints= 0
                         Cell constraints are:  1 2 3 4 5 6

                         External pressure/stress (GPa)
                          0.00000   0.00000   0.00000
                                    0.00000   0.00000
                                              0.00000
 
+---------------- MEMORY AND SCRATCH DISK ESTIMATES PER PROCESS --------------+
|                                                     Memory          Disk    |
| Baseline code, static data and system overhead      368.0 MB         0.0 MB |
| BLAS internal memory storage                          0.0 MB         0.0 MB |
| Model and support data                             3663.9 MB         0.0 MB |
| Electronic energy minimisation requirements         956.3 MB         0.0 MB |
| Force calculation requirements                       70.0 MB         0.0 MB |
|                                               ----------------------------- |
| Approx. total storage required per process         4988.2 MB         0.0 MB |
|                                                                             |
| Requirements will fluctuate during execution and may exceed these estimates |
+-----------------------------------------------------------------------------+
Calculating approximate eigenstates for fixed initial Hamiltonian
Cut-off for approx. calculation is   89.988 eV
Improving approx. states at cut-off of  450.000 eV
Resetting cut-off to  900.000 eV
Calculating total energy with cut-off of  900.000 eV.
------------------------------------------------------------------------ <-- SCF
SCF loop      Energy           Fermi           Energy gain       Timer   <-- SCF
                               energy          per atom          (sec)   <-- SCF
------------------------------------------------------------------------ <-- SCF
Initial  -9.45649088E+004  0.00000000E+000                       358.09  <-- SCF
      1  -9.42023394E+004  3.54859729E+000  -3.77676464E+000     707.82  <-- SCF
      2  -9.42027845E+004  3.54812671E+000   4.63600814E-003     938.38  <-- SCF
      3  -9.43025698E+004  3.67139251E+000   1.03942987E+000    1196.58  <-- SCF
      4  -9.43202739E+004  3.71725392E+000   1.84417574E-001    1572.91  <-- SCF
      5  -9.43103893E+004  4.04057842E+000  -1.02963777E-001    1826.60  <-- SCF
      6  -9.43113359E+004  4.11977917E+000   9.86062142E-003    2084.34  <-- SCF
      7  -9.43109727E+004  4.14670401E+000  -3.78358310E-003    2361.35  <-- SCF
      8  -9.43133073E+004  4.13724721E+000   2.43182986E-002    2620.61  <-- SCF
      9  -9.43132652E+004  4.12491855E+000  -4.37900468E-004    2882.97  <-- SCF
     10  -9.43132574E+004  4.12566180E+000  -8.20727388E-005    3163.51  <-- SCF
     11  -9.43132692E+004  4.12454196E+000   1.23137813E-004    3431.88  <-- SCF
     12  -9.43132702E+004  4.12701827E+000   1.01138141E-005    3709.20  <-- SCF
     13  -9.43132700E+004  4.12684385E+000  -1.35056473E-006    3982.07  <-- SCF
     14  -9.43132700E+004  4.12640158E+000  -2.39831448E-007    4261.31  <-- SCF
     15  -9.43132700E+004  4.12624937E+000  -8.20492525E-008    4495.90  <-- SCF
     16  -9.43132700E+004  4.12606044E+000  -2.99074081E-008    4693.00  <-- SCF
     17  -9.43132700E+004  4.12599704E+000   6.76848747E-010    4896.00  <-- SCF
     18  -9.43132700E+004  4.12599555E+000   1.80845323E-010    5101.78  <-- SCF
------------------------------------------------------------------------ <-- SCF
 
Final energy, E             =  -94313.12470744     eV
Final free energy (E-TS)    =  -94313.26999283     eV
(energies not corrected for finite basis set)
 
NB est. 0K energy (E-0.5TS)      =  -94313.19735013     eV
 

 ************************** Forces **************************
 *                                                          *
 *               Cartesian components (eV/A)                *
 * -------------------------------------------------------- *
 *                         x            y            z      *
 *                                                          *
 * P               1      0.17531     -0.02980     -0.24849 *
 * P               2     -0.13255      0.11188      0.25880 *
 * P               3      0.01782      0.04138     -0.04940 *
 * P               4     -0.05591      0.03769     -0.02505 *
 * P               5     -0.01115      0.01768      0.01352 *
 * P               6     -0.02758      0.01272      0.00542 *
 * P               7     -0.01211      0.01359      0.00223 *
 * P               8      0.00966     -0.00033      0.00525 *
 * P               9     -0.00649     -0.00165      0.00420 *
 * P              10     -0.02096      0.02305      0.00336 *
 * P              11     -0.01888     -0.03892      0.00044 *
 * P              12      0.01323     -0.04803      0.00027 *
 * P              13     -0.00610     -0.00910     -0.01498 *
 * P              14      0.14383      0.01992     -0.05410 *
 * P              15     -0.01566      0.02918     -0.00864 *
 * P              16     -0.11142      0.10206     -0.03013 *
 * P              17     -0.02578      0.00528     -0.00018 *
 * P              18     -0.01943      0.01456     -0.00195 *
 * P              19     -0.01034      0.01222      0.00572 *
 * P              20     -0.02192      0.03131      0.00849 *
 * P              21     -0.02934     -0.01021      0.00041 *
 * P              22     -0.00686     -0.01799      0.01050 *
 * P              23     -0.05185     -0.04459     -0.00231 *
 * P              24     -0.07961     -0.06146      0.00848 *
 * P              25     -0.13260      0.08412     -0.01402 *
 * P              26     -0.29168     -0.02162      0.00836 *
 * P              27     -0.06608      0.04424     -0.00817 *
 * P              28      0.14480      0.11479      0.04102 *
 * P              29      0.05244     -0.01614      0.00464 *
 * P              30     -0.02170      0.02484      0.01288 *
 * P              31      0.02034     -0.02455     -0.00669 *
 * P              32      0.02915     -0.02187      0.00330 *
 * P              33      0.01957     -0.04128     -0.01825 *
 * P              34      0.02122     -0.04484     -0.00658 *
 * P              35     -0.01871     -0.10377      0.01577 *
 * P              36      0.03900     -0.08026     -0.05480 *
 * P              37     -0.03070      0.04013      0.05080 *
 * P              38      0.33771      0.09255      0.00371 *
 * P              39      0.01198      0.04468      0.01240 *
 * P              40     -0.05077      0.07167      0.05790 *
 * P              41      0.02195      0.05617     -0.00100 *
 * P              42      0.00076      0.02751      0.00567 *
 * P              43      0.00325      0.01631     -0.00612 *
 * P              44     -0.00895     -0.01789     -0.00630 *
 * P              45      0.02001     -0.01094     -0.00215 *
 * P              46      0.02064      0.02098      0.00831 *
 * P              47      0.01505     -0.02811      0.00390 *
 * P              48      0.02185     -0.02559      0.00250 *
 * In              1      0.02906      0.15348      0.01278 *
 * In              2      0.01686      0.17588     -0.01171 *
 * In              3     -0.07126     -0.14258      0.13319 *
 * In              4     -0.07691     -0.02740      0.01088 *
 * In              5     -0.00785      0.00599     -0.00325 *
 * In              6      0.02809     -0.02867      0.01829 *
 * In              7      0.03999     -0.00754     -0.00551 *
 * In              8      0.00794     -0.02384     -0.01180 *
 * In              9      0.00455     -0.03204     -0.00471 *
 * In             10      0.01470     -0.04652     -0.00314 *
 * In             11      0.00844     -0.04342     -0.00658 *
 * In             12      0.00029     -0.04243     -0.00354 *
 * In             13      0.01297      0.04942     -0.01004 *
 * In             14     -0.06204      0.01118      0.01401 *
 * In             15      0.05784     -0.04100      0.04039 *
 * In             16      0.18978     -0.01703      0.15709 *
 * In             17      0.00666     -0.02417     -0.00585 *
 * In             18      0.03535     -0.00178      0.00425 *
 * In             19      0.01706     -0.01518      0.00164 *
 * In             20      0.01449     -0.02780      0.00067 *
 * In             21      0.02471     -0.01960     -0.00303 *
 * In             22     -0.01708      0.01672     -0.00390 *
 * In             23      0.03657      0.02965     -0.00640 *
 * In             24      0.02600     -0.01140     -0.00828 *
 * In             25      0.07845      0.08633     -0.00064 *
 * In             26     -0.04279      0.07568      0.00811 *
 * In             27      0.19245     -0.20988      0.04101 *
 * In             28     -0.26221     -0.17846     -0.20761 *
 * In             29     -0.09130      0.00111      0.00853 *
 * In             30      0.09999     -0.06581      0.00094 *
 * In             31     -0.02002      0.01822      0.00141 *
 * In             32     -0.07840     -0.00297     -0.00043 *
 * In             33     -0.01393      0.05347     -0.00005 *
 * In             34      0.00089      0.02130      0.00661 *
 * In             35      0.01139      0.02320      0.02381 *
 * In             36     -0.00241      0.03822      0.00700 *
 * In             37      0.06300      0.07326     -0.03721 *
 * In             38      0.02880      0.13252     -0.00267 *
 * In             39     -0.11285     -0.11218     -0.05089 *
 * In             40      0.02605     -0.15392     -0.10712 *
 * In             41     -0.08926     -0.03207     -0.01033 *
 * In             42      0.02401     -0.06220     -0.00189 *
 * In             43     -0.00160      0.00256      0.01055 *
 * In             44      0.03422     -0.02269      0.00276 *
 * In             45     -0.00612     -0.00526      0.00698 *
 * In             46     -0.00688     -0.01094     -0.00199 *
 * In             47     -0.00516      0.01788      0.00316 *
 * In             48     -0.01699      0.01111     -0.00444 *
 *                                                          *
 ************************************************************

 Pseudo atomic calculation performed for P 3s2 3p3

 Converged in 23 iterations to a total energy of -208.0292 eV

 Pseudo atomic calculation performed for In 4d10 5s2 5p1

 Converged in 42 iterations to a total energy of -1747.4501 eV
Charge spilling parameter for spin component 1 = 0.19%

            Orbital Populations       
     Ion    Atom   Orbital             Charge
  -------------------------------------------
      P     1      S                    1.747
      P     1      Px                   1.075
      P     1      Py                   1.344
      P     1      Pz                   1.315
      P     2      S                    1.758
      P     2      Px                   1.069
      P     2      Py                   1.343
      P     2      Pz                   1.306
      P     3      S                    1.747
      P     3      Px                   1.302
      P     3      Py                   1.314
      P     3      Pz                   1.301
      P     4      S                    1.741
      P     4      Px                   1.304
      P     4      Py                   1.324
      P     4      Pz                   1.300
      P     5      S                    1.745
      P     5      Px                   1.309
      P     5      Py                   1.304
      P     5      Pz                   1.304
      P     6      S                    1.740
      P     6      Px                   1.309
      P     6      Py                   1.311
      P     6      Pz                   1.309
      P     7      S                    1.741
      P     7      Px                   1.314
      P     7      Py                   1.306
      P     7      Pz                   1.307
      P     8      S                    1.742
      P     8      Px                   1.316
      P     8      Py                   1.305
      P     8      Pz                   1.305
      P     9      S                    1.742
      P     9      Px                   1.310
      P     9      Py                   1.308
      P     9      Pz                   1.307
      P    10      S                    1.741
      P    10      Px                   1.312
      P    10      Py                   1.310
      P    10      Pz                   1.306
      P    11      S                    1.743
      P    11      Px                   1.292
      P    11      Py                   1.319
      P    11      Pz                   1.313
      P    12      S                    1.745
      P    12      Px                   1.307
      P    12      Py                   1.322
      P    12      Pz                   1.291
      P    13      S                    1.745
      P    13      Px                   1.289
      P    13      Py                   1.311
      P    13      Pz                   1.317
      P    14      S                    1.751
      P    14      Px                   1.282
      P    14      Py                   1.308
      P    14      Pz                   1.315
      P    15      S                    1.740
      P    15      Px                   1.309
      P    15      Py                   1.320
      P    15      Pz                   1.304
      P    16      S                    1.740
      P    16      Px                   1.295
      P    16      Py                   1.317
      P    16      Pz                   1.311
      P    17      S                    1.737
      P    17      Px                   1.311
      P    17      Py                   1.313
      P    17      Pz                   1.309
      P    18      S                    1.734
      P    18      Px                   1.313
      P    18      Py                   1.312
      P    18      Pz                   1.312
      P    19      S                    1.733
      P    19      Px                   1.314
      P    19      Py                   1.317
      P    19      Pz                   1.312
      P    20      S                    1.738
      P    20      Px                   1.314
      P    20      Py                   1.310
      P    20      Pz                   1.309
      P    21      S                    1.734
      P    21      Px                   1.316
      P    21      Py                   1.314
      P    21      Pz                   1.310
      P    22      S                    1.728
      P    22      Px                   1.316
      P    22      Py                   1.322
      P    22      Pz                   1.312
      P    23      S                    1.738
      P    23      Px                   1.307
      P    23      Py                   1.316
      P    23      Pz                   1.309
      P    24      S                    1.730
      P    24      Px                   1.306
      P    24      Py                   1.313
      P    24      Pz                   1.325
      P    25      S                    1.771
      P    25      Px                   1.286
      P    25      Py                   1.311
      P    25      Pz                   1.237
      P    26      S                    1.747
      P    26      Px                   1.277
      P    26      Py                   1.307
      P    26      Pz                   1.314
      P    27      S                    1.731
      P    27      Px                   1.351
      P    27      Py                   1.243
      P    27      Pz                   1.349
      P    28      S                    1.738
      P    28      Px                   1.322
      P    28      Py                   1.310
      P    28      Pz                   1.290
      P    29      S                    1.727
      P    29      Px                   1.321
      P    29      Py                   1.311
      P    29      Pz                   1.321
      P    30      S                    1.728
      P    30      Px                   1.327
      P    30      Py                   1.313
      P    30      Pz                   1.310
      P    31      S                    1.728
      P    31      Px                   1.316
      P    31      Py                   1.324
      P    31      Pz                   1.309
      P    32      S                    1.729
      P    32      Px                   1.314
      P    32      Py                   1.322
      P    32      Pz                   1.314
      P    33      S                    1.726
      P    33      Px                   1.317
      P    33      Py                   1.326
      P    33      Pz                   1.309
      P    34      S                    1.731
      P    34      Px                   1.316
      P    34      Py                   1.317
      P    34      Pz                   1.310
      P    35      S                    1.720
      P    35      Px                   1.333
      P    35      Py                   1.317
      P    35      Pz                   1.308
      P    36      S                    1.729
      P    36      Px                   1.325
      P    36      Py                   1.312
      P    36      Pz                   1.299
      P    37      S                    1.754
      P    37      Px                   1.283
      P    37      Py                   1.309
      P    37      Pz                   1.306
      P    38      S                    1.756
      P    38      Px                   1.263
      P    38      Py                   1.312
      P    38      Pz                   1.302
      P    39      S                    1.739
      P    39      Px                   1.309
      P    39      Py                   1.319
      P    39      Pz                   1.302
      P    40      S                    1.748
      P    40      Px                   1.303
      P    40      Py                   1.310
      P    40      Pz                   1.300
      P    41      S                    1.737
      P    41      Px                   1.318
      P    41      Py                   1.315
      P    41      Pz                   1.303
      P    42      S                    1.740
      P    42      Px                   1.315
      P    42      Py                   1.310
      P    42      Pz                   1.305
      P    43      S                    1.738
      P    43      Px                   1.316
      P    43      Py                   1.312
      P    43      Pz                   1.305
      P    44      S                    1.732
      P    44      Px                   1.320
      P    44      Py                   1.315
      P    44      Pz                   1.308
      P    45      S                    1.736
      P    45      Px                   1.314
      P    45      Py                   1.313
      P    45      Pz                   1.308
      P    46      S                    1.741
      P    46      Px                   1.309
      P    46      Py                   1.310
      P    46      Pz                   1.307
      P    47      S                    1.735
      P    47      Px                   1.316
      P    47      Py                   1.311
      P    47      Pz                   1.308
      P    48      S                    1.739
      P    48      Px                   1.305
      P    48      Py                   1.314
      P    48      Pz                   1.309
     In     1      Dzz                  1.997
     In     1      Dzy                  1.998
     In     1      Dzx                  1.997
     In     1      Dxx-yy               1.998
     In     1      Dxy                  1.998
     In     1      S                    1.416
     In     1      Px                   0.492
     In     1      Py                   0.478
     In     1      Pz                   0.478
     In     1      S                   -0.500
     In     2      Dzz                  1.997
     In     2      Dzy                  1.998
     In     2      Dzx                  1.997
     In     2      Dxx-yy               1.997
     In     2      Dxy                  1.998
     In     2      S                    1.404
     In     2      Px                   0.485
     In     2      Py                   0.482
     In     2      Pz                   0.487
     In     2      S                   -0.509
     In     3      Dzz                  1.998
     In     3      Dzy                  1.998
     In     3      Dzx                  1.998
     In     3      Dxx-yy               1.998
     In     3      Dxy                  1.998
     In     3      S                    1.451
     In     3      Px                   0.454
     In     3      Py                   0.467
     In     3      Pz                   0.475
     In     3      S                   -0.483
     In     4      Dzz                  1.998
     In     4      Dzy                  1.998
     In     4      Dzx                  1.998
     In     4      Dxx-yy               1.998
     In     4      Dxy                  1.998
     In     4      S                    1.438
     In     4      Px                   0.463
     In     4      Py                   0.460
     In     4      Pz                   0.495
     In     4      S                   -0.519
     In     5      Dzz                  1.998
     In     5      Dzy                  1.999
     In     5      Dzx                  1.998
     In     5      Dxx-yy               1.998
     In     5      Dxy                  1.999
     In     5      S                    1.434
     In     5      Px                   0.482
     In     5      Py                   0.461
     In     5      Pz                   0.465
     In     5      S                   -0.498
     In     6      Dzz                  1.998
     In     6      Dzy                  1.999
     In     6      Dzx                  1.998
     In     6      Dxx-yy               1.998
     In     6      Dxy                  1.998
     In     6      S                    1.422
     In     6      Px                   0.486
     In     6      Py                   0.471
     In     6      Pz                   0.471
     In     6      S                   -0.494
     In     7      Dzz                  1.998
     In     7      Dzy                  1.999
     In     7      Dzx                  1.998
     In     7      Dxx-yy               1.998
     In     7      Dxy                  1.998
     In     7      S                    1.420
     In     7      Px                   0.487
     In     7      Py                   0.473
     In     7      Pz                   0.473
     In     7      S                   -0.508
     In     8      Dzz                  1.998
     In     8      Dzy                  1.999
     In     8      Dzx                  1.998
     In     8      Dxx-yy               1.997
     In     8      Dxy                  1.999
     In     8      S                    1.421
     In     8      Px                   0.483
     In     8      Py                   0.474
     In     8      Pz                   0.475
     In     8      S                   -0.505
     In     9      Dzz                  1.998
     In     9      Dzy                  1.998
     In     9      Dzx                  1.998
     In     9      Dxx-yy               1.997
     In     9      Dxy                  1.998
     In     9      S                    1.420
     In     9      Px                   0.485
     In     9      Py                   0.476
     In     9      Pz                   0.477
     In     9      S                   -0.504
     In    10      Dzz                  1.998
     In    10      Dzy                  1.998
     In    10      Dzx                  1.998
     In    10      Dxx-yy               1.997
     In    10      Dxy                  1.998
     In    10      S                    1.423
     In    10      Px                   0.488
     In    10      Py                   0.475
     In    10      Pz                   0.475
     In    10      S                   -0.512
     In    11      Dzz                  1.998
     In    11      Dzy                  1.999
     In    11      Dzx                  1.998
     In    11      Dxx-yy               1.997
     In    11      Dxy                  1.998
     In    11      S                    1.415
     In    11      Px                   0.491
     In    11      Py                   0.475
     In    11      Pz                   0.475
     In    11      S                   -0.506
     In    12      Dzz                  1.998
     In    12      Dzy                  1.999
     In    12      Dzx                  1.998
     In    12      Dxx-yy               1.998
     In    12      Dxy                  1.999
     In    12      S                    1.411
     In    12      Px                   0.487
     In    12      Py                   0.471
     In    12      Pz                   0.480
     In    12      S                   -0.507
     In    13      Dzz                  1.998
     In    13      Dzy                  1.999
     In    13      Dzx                  1.998
     In    13      Dxx-yy               1.997
     In    13      Dxy                  1.998
     In    13      S                    1.421
     In    13      Px                   0.493
     In    13      Py                   0.477
     In    13      Pz                   0.464
     In    13      S                   -0.497
     In    14      Dzz                  1.997
     In    14      Dzy                  1.999
     In    14      Dzx                  1.998
     In    14      Dxx-yy               1.998
     In    14      Dxy                  1.998
     In    14      S                    1.420
     In    14      Px                   0.492
     In    14      Py                   0.481
     In    14      Pz                   0.467
     In    14      S                   -0.514
     In    15      Dzz                  1.998
     In    15      Dzy                  1.998
     In    15      Dzx                  1.998
     In    15      Dxx-yy               1.998
     In    15      Dxy                  1.998
     In    15      S                    1.434
     In    15      Px                   0.456
     In    15      Py                   0.460
     In    15      Pz                   0.500
     In    15      S                   -0.497
     In    16      Dzz                  1.998
     In    16      Dzy                  1.998
     In    16      Dzx                  1.997
     In    16      Dxx-yy               1.998
     In    16      Dxy                  1.999
     In    16      S                    1.459
     In    16      Px                   0.505
     In    16      Py                   0.452
     In    16      Pz                   0.508
     In    16      S                   -0.466
     In    17      Dzz                  1.997
     In    17      Dzy                  1.998
     In    17      Dzx                  1.998
     In    17      Dxx-yy               1.997
     In    17      Dxy                  1.998
     In    17      S                    1.422
[...]
  P               8     1.742   3.926   0.000   0.000   5.667    -0.667
  P               9     1.742   3.924   0.000   0.000   5.667    -0.667
  P              10     1.741   3.929   0.000   0.000   5.669    -0.669
  P              11     1.743   3.923   0.000   0.000   5.665    -0.665
  P              12     1.745   3.920   0.000   0.000   5.665    -0.665
  P              13     1.745   3.916   0.000   0.000   5.662    -0.662
  P              14     1.751   3.905   0.000   0.000   5.655    -0.655
  P              15     1.740   3.933   0.000   0.000   5.672    -0.672
  P              16     1.740   3.923   0.000   0.000   5.663    -0.663
  P              17     1.737   3.934   0.000   0.000   5.671    -0.671
  P              18     1.734   3.937   0.000   0.000   5.672    -0.672
  P              19     1.733   3.942   0.000   0.000   5.675    -0.675
  P              20     1.738   3.933   0.000   0.000   5.672    -0.672
  P              21     1.734   3.940   0.000   0.000   5.675    -0.675
  P              22     1.728   3.950   0.000   0.000   5.678    -0.678
  P              23     1.738   3.932   0.000   0.000   5.670    -0.670
  P              24     1.730   3.943   0.000   0.000   5.673    -0.673
  P              25     1.771   3.834   0.000   0.000   5.605    -0.605
  P              26     1.747   3.899   0.000   0.000   5.645    -0.645
  P              27     1.731   3.943   0.000   0.000   5.674    -0.674
  P              28     1.738   3.922   0.000   0.000   5.661    -0.661
  P              29     1.727   3.953   0.000   0.000   5.680    -0.680
  P              30     1.728   3.950   0.000   0.000   5.678    -0.678
  P              31     1.728   3.950   0.000   0.000   5.678    -0.678
  P              32     1.729   3.950   0.000   0.000   5.679    -0.679
  P              33     1.726   3.952   0.000   0.000   5.678    -0.678
  P              34     1.731   3.943   0.000   0.000   5.674    -0.674
  P              35     1.720   3.959   0.000   0.000   5.679    -0.679
  P              36     1.729   3.935   0.000   0.000   5.665    -0.665
  P              37     1.754   3.898   0.000   0.000   5.652    -0.652
  P              38     1.756   3.877   0.000   0.000   5.633    -0.633
  P              39     1.739   3.930   0.000   0.000   5.669    -0.669
  P              40     1.748   3.912   0.000   0.000   5.660    -0.660
  P              41     1.737   3.936   0.000   0.000   5.673    -0.673
  P              42     1.740   3.930   0.000   0.000   5.670    -0.670
  P              43     1.738   3.932   0.000   0.000   5.670    -0.670
  P              44     1.732   3.943   0.000   0.000   5.675    -0.675
  P              45     1.736   3.935   0.000   0.000   5.671    -0.671
  P              46     1.741   3.926   0.000   0.000   5.667    -0.667
  P              47     1.735   3.935   0.000   0.000   5.670    -0.670
  P              48     1.739   3.928   0.000   0.000   5.667    -0.667
  In              1     0.916   1.447   9.988   0.000  12.352     0.648
  In              2     0.895   1.454   9.988   0.000  12.336     0.664
  In              3     0.968   1.396   9.991   0.000  12.354     0.646
  In              4     0.919   1.418   9.990   0.000  12.328     0.672
  In              5     0.936   1.409   9.991   0.000  12.336     0.664
  In              6     0.928   1.428   9.990   0.000  12.346     0.654
  In              7     0.913   1.433   9.990   0.000  12.336     0.664
  In              8     0.915   1.431   9.990   0.000  12.337     0.663
  In              9     0.916   1.438   9.990   0.000  12.344     0.656
  In             10     0.911   1.438   9.990   0.000  12.339     0.661
  In             11     0.909   1.441   9.990   0.000  12.340     0.660
  In             12     0.904   1.439   9.990   0.000  12.333     0.667
  In             13     0.924   1.434   9.990   0.000  12.348     0.652
  In             14     0.906   1.440   9.989   0.000  12.335     0.665
  In             15     0.937   1.416   9.990   0.000  12.343     0.657
  In             16     0.992   1.465   9.990   0.000  12.448     0.552
  In             17     0.905   1.442   9.989   0.000  12.336     0.664
  In             18     0.890   1.458   9.989   0.000  12.337     0.663
  In             19     0.883   1.448   9.989   0.000  12.320     0.680
  In             20     0.904   1.438   9.990   0.000  12.332     0.668
  In             21     0.895   1.445   9.989   0.000  12.328     0.672
  In             22     0.878   1.454   9.988   0.000  12.320     0.680
  In             23     0.894   1.445   9.989   0.000  12.329     0.671
  In             24     0.879   1.446   9.989   0.000  12.314     0.686
  In             25     0.951   1.431   9.990   0.000  12.371     0.629
  In             26     0.921   1.431   9.990   0.000  12.342     0.658
  In             27     0.978   1.407   9.986   0.000  12.371     0.629
  In             28     1.004   1.473   9.990   0.000  12.466     0.534
  In             29     0.873   1.459   9.987   0.000  12.319     0.681
  In             30     0.873   1.451   9.988   0.000  12.312     0.688
  In             31     0.876   1.453   9.988   0.000  12.318     0.682
  In             32     0.865   1.459   9.988   0.000  12.312     0.688
  In             33     0.868   1.454   9.988   0.000  12.310     0.690
  In             34     0.885   1.448   9.989   0.000  12.322     0.678
  In             35     0.864   1.457   9.987   0.000  12.309     0.691
  In             36     0.882   1.450   9.988   0.000  12.320     0.680
  In             37     0.896   1.441   9.989   0.000  12.326     0.674
  In             38     0.921   1.434   9.990   0.000  12.344     0.656
  In             39     0.987   1.433   9.990   0.000  12.411     0.589
  In             40     0.977   1.403   9.991   0.000  12.371     0.629
  In             41     0.902   1.441   9.989   0.000  12.332     0.668
  In             42     0.922   1.428   9.990   0.000  12.341     0.659
  In             43     0.912   1.439   9.990   0.000  12.340     0.660
  In             44     0.888   1.448   9.989   0.000  12.325     0.675
  In             45     0.893   1.444   9.989   0.000  12.326     0.674
  In             46     0.912   1.439   9.990   0.000  12.340     0.660
  In             47     0.897   1.443   9.989   0.000  12.329     0.671
  In             48     0.907   1.443   9.989   0.000  12.339     0.661
==========================================================================

                 Bond                   Population      Length (A)
======================================================================
              P 1  -- P 2                    0.42        2.26975
              P 27 -- In 27                  0.72        2.43858
              P 25 -- In 27                  1.56        2.46461
              P 29 -- In 29                  0.62        2.49642
              P 16 -- In 29                  0.57        2.49987
              P 35 -- In 35                  0.58        2.50373
              P 35 -- In 1                   0.57        2.50513
              P 30 -- In 30                  0.60        2.50741
              P 35 -- In 2                   1.37        2.50819
              P 32 -- In 32                  0.59        2.51421
              P 24 -- In 2                   0.58        2.51705
              P 33 -- In 33                  0.58        2.51721
              P 31 -- In 31                  0.57        2.51768
              P 1  -- In 3                   1.22        2.51884
              P 36 -- In 14                  0.56        2.51907
              P 26 -- In 16                  1.38        2.52067
              P 22 -- In 35                  0.57        2.52331
              P 15 -- In 18                  0.54        2.52336
              P 22 -- In 22                  0.58        2.52442
              P 18 -- In 32                  0.57        2.52484
              P 47 -- In 13                  0.57        2.52615
              P 19 -- In 22                  0.56        2.52663
              P 17 -- In 19                  0.57        2.52746
              P 33 -- In 36                  0.58        2.52796
              P 33 -- In 35                  1.37        2.52809
              P 34 -- In 47                  0.57        2.52833
              P 13 -- In 15                  1.33        2.53012
              P 29 -- In 31                  0.55        2.53428
              P 36 -- In 36                  0.56        2.53472
              P 30 -- In 44                  0.56        2.53475
              P 44 -- In 44                  0.58        2.53559
              P 45 -- In 48                  0.56        2.53570
              P 34 -- In 34                  0.57        2.53586
              P 36 -- In 1                   1.36        2.53633
              P 28 -- In 30                  1.39        2.53636
              P 31 -- In 34                  0.56        2.53638
              P 32 -- In 33                  0.56        2.53650
              P 44 -- In 45                  0.56        2.53661
              P 20 -- In 21                  0.56        2.53750
              P 27 -- In 30                  0.48        2.53766
              P 27 -- In 29                  1.30        2.53771
              P 21 -- In 24                  0.56        2.53796
              P 14 -- In 4                   1.31        2.53804
              P 29 -- In 32                  1.35        2.54043
              P 4  -- In 17                  0.52        2.54064
              P 6  -- In 20                  0.56        2.54176
              P 48 -- In 26                  0.58        2.54189
              P 24 -- In 24                  0.55        2.54202
              P 31 -- In 33                  1.36        2.54222
              P 2  -- In 40                  1.11        2.54234
              P 24 -- In 37                  1.35        2.54279
              P 30 -- In 31                  1.34        2.54294
              P 43 -- In 46                  0.56        2.54479
              P 39 -- In 41                  1.35        2.54490
              P 19 -- In 19                  0.58        2.54551
              P 7  -- In 10                  0.55        2.54624
              P 46 -- In 11                  0.57        2.54684
              P 18 -- In 18                  0.58        2.54731
              P 38 -- In 28                  1.32        2.54747
              P 32 -- In 22                  1.35        2.54768
              P 22 -- In 24                  1.37        2.54796
              P 34 -- In 36                  1.34        2.54860
              P 41 -- In 43                  0.54        2.54903
              P 10 -- In 23                  0.55        2.54941
              P 8  -- In 9                   0.55        2.54971
              P 11 -- In 25                  0.57        2.55015
              P 37 -- In 39                  1.22        2.55142
              P 41 -- In 44                  1.35        2.55353
              P 44 -- In 34                  1.34        2.55415
              P 21 -- In 21                  0.57        2.55419
              P 5  -- In 7                   0.55        2.55420
              P 37 -- In 37                  0.56        2.55517
              P 23 -- In 38                  1.34        2.55524
              P 9  -- In 12                  0.56        2.55647
              P 3  -- In 5                   1.30        2.55725
              P 21 -- In 23                  1.35        2.55741
              P 42 -- In 8                   0.55        2.55757
              P 45 -- In 45                  0.57        2.55782
              P 41 -- In 41                  0.55        2.55817
              P 47 -- In 47                  0.57        2.55943
              P 38 -- In 38                  0.56        2.56162
              P 39 -- In 39                  0.54        2.56172
              P 19 -- In 21                  1.33        2.56200
              P 23 -- In 37                  0.54        2.56208
              P 12 -- In 25                  1.32        2.56231
              P 28 -- In 28                  0.55        2.56265
              P 45 -- In 47                  1.33        2.56348
              P 47 -- In 14                  1.31        2.56363
              P 43 -- In 45                  1.33        2.56403
              P 17 -- In 17                  0.57        2.56415
              P 23 -- In 23                  0.55        2.56431
              P 42 -- In 43                  1.33        2.56433
              P 18 -- In 19                  1.33        2.56457
              P 16 -- In 18                  1.33        2.56663
              P 48 -- In 48                  0.56        2.56834
              P 8  -- In 46                  1.32        2.56956
              P 20 -- In 20                  0.57        2.56964
              P 3  -- In 6                   0.51        2.56970
              P 10 -- In 12                  1.34        2.56990
              P 20 -- In 10                  1.32        2.57012
              P 43 -- In 43                  0.55        2.57123
              P 46 -- In 48                  1.32        2.57139
              P 5  -- In 8                   1.32        2.57179
              P 17 -- In 20                  1.33        2.57224
              P 7  -- In 9                   1.32        2.57281
              P 15 -- In 17                  1.35        2.57281
              P 4  -- In 6                   1.35        2.57335
              P 42 -- In 42                  0.54        2.57366
              P 9  -- In 11                  1.32        2.57388
              P 6  -- In 7                   1.33        2.57506
              P 40 -- In 40                  0.53        2.57520
              P 40 -- In 42                  1.30        2.57578
              P 6  -- In 6                   0.55        2.57668
              P 28 -- In 41                  0.53        2.57670
              P 48 -- In 13                  1.30        2.57671
              P 2  -- In 2                   0.57        2.57897
              P 46 -- In 46                  0.55        2.58130
              P 10 -- In 10                  0.55        2.58211
              P 11 -- In 26                  1.27        2.58221
              P 39 -- In 42                  0.54        2.58295
              P 26 -- In 26                  0.54        2.58484
              P 14 -- In 14                  0.53        2.58496
              P 11 -- In 11                  0.54        2.58563
              P 3  -- In 3                   0.51        2.58744
              P 13 -- In 13                  0.52        2.58840
              P 12 -- In 38                  0.53        2.58885
              P 16 -- In 16                  0.53        2.59118
              P 9  -- In 9                   0.55        2.59181
              P 8  -- In 8                   0.55        2.59271
              P 15 -- In 15                  0.54        2.59333
              P 7  -- In 7                   0.56        2.59364
              P 12 -- In 12                  0.53        2.59699
              P 4  -- In 4                   0.54        2.59733
              P 40 -- In 5                   0.52        2.60090
              P 1  -- In 1                   0.50        2.60219
              P 5  -- In 5                   0.53        2.60967
              P 37 -- In 40                  0.50        2.62248
              P 25 -- In 25                  0.43        2.63232
              P 38 -- In 39                  0.39        2.64162
              P 13 -- In 4                   0.52        2.64747
              P 14 -- In 3                   0.50        2.66091
              P 26 -- In 15                  0.48        2.67311
======================================================================

 Hirshfeld supercell size:           1           1           4
Standard grid dimensions: 250 250 180
Fine grid dimensions:     250 250 180


     Hirshfeld Analysis
     ------------------
Species   Ion     Hirshfeld Charge (e)
======================================
  P        1                -0.16
  P        2                -0.16
  P        3                -0.24
  P        4                -0.25
  P        5                -0.24
  P        6                -0.24
  P        7                -0.24
  P        8                -0.24
  P        9                -0.24
  P       10                -0.24
  P       11                -0.24
  P       12                -0.23
  P       13                -0.24
  P       14                -0.24
  P       15                -0.24
  P       16                -0.24
  P       17                -0.24
  P       18                -0.24
  P       19                -0.24
  P       20                -0.24
  P       21                -0.24
  P       22                -0.24
  P       23                -0.24
  P       24                -0.24
  P       25                -0.22
  P       26                -0.24
  P       27                -0.23
  P       28                -0.24
  P       29                -0.24
  P       30                -0.24
  P       31                -0.24
  P       32                -0.24
  P       33                -0.24
  P       34                -0.24
  P       35                -0.25
  P       36                -0.24
  P       37                -0.24
  P       38                -0.24
  P       39                -0.24
  P       40                -0.24
  P       41                -0.24
  P       42                -0.24
  P       43                -0.24
  P       44                -0.24
  P       45                -0.24
  P       46                -0.24
  P       47                -0.24
  P       48                -0.24
  In       1                 0.24
  In       2                 0.23
  In       3                 0.24
  In       4                 0.24
  In       5                 0.25
  In       6                 0.24
  In       7                 0.24
  In       8                 0.24
  In       9                 0.24
  In      10                 0.24
  In      11                 0.23
  In      12                 0.23
  In      13                 0.24
  In      14                 0.24
  In      15                 0.24
  In      16                 0.18
  In      17                 0.24
  In      18                 0.23
  In      19                 0.24
  In      20                 0.24
  In      21                 0.24
  In      22                 0.24
  In      23                 0.24
  In      24                 0.24
  In      25                 0.25
  In      26                 0.24
  In      27                 0.25
  In      28                 0.17
  In      29                 0.23
  In      30                 0.23
  In      31                 0.24
  In      32                 0.23
  In      33                 0.24
  In      34                 0.24
  In      35                 0.24
  In      36                 0.24
  In      37                 0.24
  In      38                 0.24
  In      39                 0.22
  In      40                 0.23
  In      41                 0.23
  In      42                 0.24
  In      43                 0.24
  In      44                 0.24
  In      45                 0.24
  In      46                 0.24
  In      47                 0.24
  In      48                 0.24
======================================

 
 A BibTeX formatted list of references used in this run has been written to 
 90deg_Singlepoints_3.bib
 
Initialisation time =     30.02 s
Calculation time    =   5272.22 s
Finalisation time   =     71.07 s
Total time          =   5373.31 s
Peak Memory Use     = 8534380 kB
 
Overall parallel efficiency rating: Terrible (33%)
 
Data was distributed by:-
G-vector (6-way); efficiency rating: Poor (36%)
k-point (20-way); efficiency rating: Very good (80%)
