 +-------------------------------------------------+
 |                                                 |
 |      CCC   AA    SSS  TTTTT  EEEEE  PPPP        |
 |     C     A  A  S       T    E      P   P       |
 |     C     AAAA   SS     T    EEE    PPPP        |
 |     C     A  A     S    T    E      P           |
 |      CCC  A  A  SSS     T    EEEEE  P           |
 |                                                 |
 +-------------------------------------------------+
 |                                                 |
 | Welcome to Academic Release CASTEP version 24.1 |
 | Ab Initio Total Energy Program                  |
 |                                                 |
 | Authors:                                        |
 | M. Segall, M. Probert, C. Pickard, P. Hasnip,   |
 | S. Clark, K. Refson, J. R. Yates,               |
 | A. Bartok-Partay, M. Payne                      |
 |                                                 |
 | Contributors:                                   |
 | P. Lindan, P. Haynes, J. White, V. Milman,      |
 | N. Govind, M. Gibson, P. Tulip, V. Cocula,      |
 | B. Montanari, D. Quigley, M. Glover,            |
 | L. Bernasconi, A. Perlov, M. Plummer,           |
 | E. McNellis, J. Meyer, J. Gale, D. Jochym       |
 | J. Aarons, B. Walker, R. Gillen, D. Jones       |
 | T. Green, I. J. Bush, C. J. Armstrong,          |
 | E. J. Higgins, E. L. Brown, M. S. McFly,        |
 | J. Wilkins, B-C. Shih, P. J. P. Byrne,          |
 | R. J. Maurer, J. C. Womack, J. Dziedzic,        |
 | L. LeBlanc, T. K. Stenczel, J. Kermode,         |
 | S. Sturniolo, B. Shi, B. Durham, M. Evans,      |
 | M. J. Smith, A. Tamerus, Z. Hawkhead,           |
 | V. Ravindran, T. Hollins, S. A. Joyce,          |
 | R. T. Strong, A. M. Reilly, S. J. Donaldson     |
 |                                                 |
 | Copyright (c) 2000 - 2023                       |
 |                                                 |
 |     Distributed under license from Cambridge    |
 |     Enterprise for academic use only.           |
 |                                                 |
 | Please cite                                     |
 |                                                 |
 |     "First principles methods using CASTEP"     |
 |                                                 |
 |         Zeitschrift fuer Kristallographie       |
 |           220(5-6) pp. 567-570 (2005)           |
 |                                                 |
 | S. J. Clark, M. D. Segall, C. J. Pickard,       |
 | P. J. Hasnip, M. J. Probert, K. Refson,         |
 | M. C. Payne                                     |
 |                                                 |
 |       in all publications arising from          |
 |              your use of CASTEP                 |
 |                                                 |
 +-------------------------------------------------+
 |                                                 |
 |              http://www.castep.org              |
 |                                                 |
 +-------------------------------------------------+



 Compiled for  GNU 11.2.0 on 04-04-2024 18:39:17
 from code version 6355fd106 Castep241_branch Thu Mar 7 17:56:19 2024 +0000
 Compiler: GNU Fortran 11.2.0; Optimisation: FAST
 Comms   : MPI VERSION : CRAY MPICH version 8.1.23.14 (ANL base 3.4a2)
 MATHLIBS: default (LAPACK version 3.10.1)
 FFT Lib : fftw3 version commercial-fftw-3.3.10-sse2-avx-avx2-avx2_128
 Fundamental constants values: CODATA 2018

 Run started: Tue, 29 Apr 2025 17:17:50 +0100

 Atomic calculation performed for P: 1s2 2s2 2p6 3s2 3p3

 Converged in 47 iterations to an ae energy of -9309.074 eV

   ============================================================                
   | Pseudopotential Report - Date of generation 29-04-2025   |                
   ------------------------------------------------------------                
   | Element: P Ionic charge:  5.00 Level of theory: RSCAN    |                
   | Atomic Solver: Koelling-Harmon                           |                
   |                                                          |                
   |               Reference Electronic Structure             |                
   |         Orbital         Occupation         Energy        |                
   |            3s              2.000           -0.535        |                
   |            3p              3.000           -0.209        |                
   |                                                          |                
   |                 Pseudopotential Definition               |                
   |        Beta     l      e      Rc     scheme   norm       |                
   |          1      0   -0.535   1.807     qc      0         |                
   |          2      0    0.250   1.807     qc      0         |                
   |          3      1   -0.209   1.807     qc      0         |                
   |          4      1    0.250   1.807     qc      0         |                
   |          5      2    0.000   1.807     qc      0         |                
   |          6      2    0.250   1.807     qc      0         |                
   |         loc     3    0.000   1.807     pn      0         |                
   |                                                          |                
   | Augmentation charge Rinner = 1.263                       |                
   | Partial core correction Rc = 1.263                       |                
   ------------------------------------------------------------                
   | "3|1.8|4|4|5|30:31:32"                                   |                
   ------------------------------------------------------------                
   |      Author: Chris J. Pickard, Cambridge University      |                
   ============================================================                
 Warning: otfg_output_psp cannot write out meta-GGA pseudopotentials presently.

 Atomic calculation performed for In:
 1s2 2s2 2p6 3s2 3p6 3d10 4s2 4p6 4d10 5s2 5p1

 Converged in 84 iterations to an ae energy of -160093.328 eV

   ============================================================                
   | Pseudopotential Report - Date of generation 29-04-2025   |                
   ------------------------------------------------------------                
   | Element: In Ionic charge: 13.00 Level of theory: RSCAN   |                
   | Atomic Solver: Koelling-Harmon                           |                
   |                                                          |                
   |               Reference Electronic Structure             |                
   |         Orbital         Occupation         Energy        |                
   |            4d             10.000           -0.711        |                
   |            5s              2.000           -0.313        |                
   |            5p              1.000           -0.095        |                
   |                                                          |                
   |                 Pseudopotential Definition               |                
   |        Beta     l      e      Rc     scheme   norm       |                
   |          1      0   -0.313   2.501     qc      0         |                
   |          2      0    0.250   2.501     qc      0         |                
   |          3      1   -0.095   2.501     qc      0         |                
   |          4      1    0.250   2.501     qc      0         |                
   |          5      2   -0.711   2.207     qc      0         |                
   |          6      2    0.250   2.207     qc      0         |                
   |         loc     3    0.000   2.501     pn      0         |                
   |                                                          |                
   | Augmentation charge Rinner = 1.504                       |                
   | Partial core correction Rc = 1.504                       |                
   ------------------------------------------------------------                
   | "3|2.5|2.5|1.5|7|8|9|50:51:42U2.2U2.2"                   |                
   ------------------------------------------------------------                
   |      Author: Chris J. Pickard, Cambridge University      |                
   ============================================================                
 Warning: otfg_output_psp cannot write out meta-GGA pseudopotentials presently.

 Pseudo atomic calculation performed for P 3s2 3p3

 Converged in 23 iterations to a total energy of -208.0292 eV

 Pseudo atomic calculation performed for In 4d10 5s2 5p1

 Converged in 42 iterations to a total energy of -1747.4501 eV
 Calculation parallelised over 120 processes.
 Data is distributed by G-vector(6-way) and k-point(20-way)
 Each process may use up to 16 threads.

 ************************************ Title ************************************
 

 ***************************** General Parameters ******************************
  
 output verbosity                               : normal  (1)
 write checkpoint data to                       : 30deg_Singlepoints_6.check
 type of calculation                            : single point energy
 stress calculation                             : off
 density difference calculation                 : off
 electron localisation func (ELF) calculation   : off
 Hirshfeld analysis                             : on
 polarisation (Berry phase) analysis            : off
 molecular orbital projected DOS                : off
 deltaSCF calculation                           : off
 unlimited duration calculation
 timing information                             : on
 memory usage estimate                          : on
 write extra output files                       : on
 write final potential to formatted file        : off
 write final density to formatted file          : off
 write BibTeX reference list                    : on
 write OTFG pseudopotential files               : on
 write electrostatic potential file             : on
 write bands file                               : on
 checkpoint writing                             : off
  
 output         length unit                     : A
 output           mass unit                     : amu
 output           time unit                     : ps
 output         charge unit                     : e
 output           spin unit                     : hbar/2
 output         energy unit                     : eV
 output          force unit                     : eV/A
 output       velocity unit                     : A/ps
 output       pressure unit                     : GPa
 output     inv_length unit                     : 1/A
 output      frequency unit                     : cm-1
 output force constant unit                     : eV/A**2
 output         volume unit                     : A**3
 output   IR intensity unit                     : (D/A)**2/amu
 output         dipole unit                     : D
 output         efield unit                     : eV/A/e
 output        entropy unit                     : J/mol/K
 output    efield chi2 unit                     : pm/V
  
 wavefunctions paging                           : none
 random number generator seed                   :  171750329
 data distribution                              : optimal for this architecture
 optimization strategy                          : balance speed and memory

 *********************** Exchange-Correlation Parameters ***********************
  
 using functional                               : RSCAN
 relativistic treatment                         : Koelling-Harmon
 DFT+D: Semi-empirical dispersion correction    : off

 ************************* Pseudopotential Parameters **************************
  
 pseudopotential representation                 : reciprocal space
 <beta|phi> representation                      : reciprocal space
 spin-orbit coupling                            : off

 **************************** Basis Set Parameters *****************************
  
 plane wave basis set cut-off                   :   900.0000   eV
 size of standard grid                          :     2.0000
 size of   fine   gmax                          :    30.7390   1/A
 finite basis set correction                    : none

 **************************** Electronic Parameters ****************************
  
 number of  electrons                           :  864.0    
 net charge of system                           :  0.000    
 treating system as non-spin-polarized
 number of bands                                :        518

 ********************* Electronic Minimization Parameters **********************
  
 Method: Treating system as metallic with density mixing treatment of electrons,
         and number of  SD  steps               :          1
         and number of  CG  steps               :          4
  
 total energy / atom convergence tol.           : 0.1000E-07   eV
 eigen-energy convergence tolerance             : 0.2222E-08   eV
 max force / atom convergence tol.              : ignored
 convergence tolerance window                   :          3   cycles
 max. number of SCF cycles                      :        100
 number of fixed-spin iterations                :         10
 smearing scheme                                : Gaussian
 smearing width                                 : 0.2000       eV
 Fermi energy convergence tolerance             : 0.2721E-13   eV
 periodic dipole correction                     : NONE

 ************************** Density Mixing Parameters **************************
  
 density-mixing scheme                          : Pulay
 max. length of mixing history                  :         20
 charge density mixing amplitude                : 0.5000    
 cut-off energy for mixing                      :  900.0       eV

 *********************** Population Analysis Parameters ************************
  
 Population analysis with cutoff                :  3.000       A
 Population analysis output                     : summary and pdos components

 *******************************************************************************
  

                           -------------------------------
                                      Unit Cell
                           -------------------------------
        Real Lattice(A)                      Reciprocal Lattice(1/A)
    14.4540490    20.4411120     0.0000000        0.217350353   0.153689910   0.000000000
    14.4540490   -20.4411120     0.0000000        0.217350353  -0.153689910   0.000000000
     0.0000000     0.0000000     4.1725250        0.000000000   0.000000000   1.505847252

                       Lattice parameters(A)       Cell Angles
                    a =     25.035147          alpha =   90.000000
                    b =     25.035147          beta  =   90.000000
                    c =      4.172525          gamma =  109.471220

                       Current cell volume =          2465.602056       A**3
                                   density =             2.838254   AMU/A**3
                                           =             4.713031     g/cm^3

                           -------------------------------
                                     Cell Contents
                           -------------------------------
                         Total number of ions in cell =   96
                      Total number of species in cell =    2
                        Max number of any one species =   48

            xxxxxxxxxxxxxxxxxxxxxxxxxxxxxxxxxxxxxxxxxxxxxxxxxxxxxxxxxxxx
            x  Element    Atom        Fractional coordinates of atoms  x
            x            Number           u          v          w      x
            x----------------------------------------------------------x
            x  P            1         0.345236   0.365547   0.747358   x 
            x  P            2         0.196985   0.216511   0.505719   x 
            x  P            3         0.363434   0.207972   0.544301   x 
            x  P            4         0.482130   0.334875   0.106124   x 
            x  P            5         0.405625   0.087439   0.021782   x 
            x  P            6         0.530668   0.213662   0.551354   x 
            x  P            7         0.574003   0.092787  -0.000613   x 
            x  P            8         0.448484   0.966874   0.479993   x 
            x  P            9         0.617330   0.971948   0.447025   x 
            x  P           10         0.742618   0.098011  -0.029307   x 
            x  P           11         0.661857   0.851340   0.890779   x 
            x  P           12         0.784368   0.976314   0.438958   x 
            x  P           13         0.592060   0.612841   0.771394   x 
            x  P           14         0.468726   0.490171   0.258975   x 
            x  P           15         0.605408   0.459091   0.632405   x 
            x  P           16         0.729809   0.583539   0.143278   x 
            x  P           17         0.653780   0.339443   0.072182   x 
            x  P           18         0.778033   0.463702   0.581016   x 
            x  P           19         0.824673   0.343163   0.032139   x 
            x  P           20         0.699475   0.218800   0.519464   x 
            x  P           21         0.868879   0.221386   0.497866   x 
            x  P           22         0.995524   0.346448  -0.004339   x 
            x  P           23         0.910470   0.097670  -0.015849   x 
            x  P           24         0.037162   0.222682   0.484059   x 
            x  P           25         0.831034   0.861352   0.773529   x 
            x  P           26         0.714599   0.735418   0.296256   x 
            x  P           27         0.854158   0.710327   0.638838   x 
            x  P           28         0.982691   0.839477   0.072106   x 
            x  P           29         0.902080   0.589107   0.074185   x 
            x  P           30         0.024961   0.716416   0.538939   x 
            x  P           31         0.072499   0.593949   1.007605   x 
            x  P           32         0.949075   0.468051   0.528318   x 
            x  P           33         0.120156   0.472026   0.478300   x 
            x  P           34         0.243663   0.598422   0.936085   x 
            x  P           35         0.166922   0.349059   0.967067   x 
            x  P           36         0.290855   0.477438   0.380607   x 
            x  P           37         0.073279   0.093755   0.001199   x 
            x  P           38         0.949499   0.971038   0.528367   x 
            x  P           39         0.109916   0.964567   0.530247   x 
            x  P           40         0.235973   0.087735   0.024478   x 
            x  P           41         0.151785   0.841012   1.012384   x 
            x  P           42         0.278577   0.965011   0.507294   x 
            x  P           43         0.322186   0.843422   0.973186   x 
            x  P           44         0.196557   0.719332   0.481919   x 
            x  P           45         0.368059   0.723107   0.423862   x 
            x  P           46         0.492769   0.846696   0.928062   x 
            x  P           47         0.415303   0.603310   0.864415   x 
            x  P           48         0.539699   0.727222   0.369124   x 
            x  In           1         0.270471   0.414548   0.876680   x 
            x  In           2         0.141365   0.286215   0.472963   x 
            x  In           3         0.299541   0.265151   0.595933   x 
            x  In           4         0.411293   0.386802   0.234905   x 
            x  In           5         0.340540   0.145680   0.039729   x 
            x  In           6         0.466455   0.272809   0.598398   x 
            x  In           7         0.509166   0.151650   0.045296   x 
            x  In           8         0.383420   0.025614   0.517655   x 
            x  In           9         0.552283   0.030686   0.493898   x 
            x  In          10         0.677705   0.156857   0.014683   x 
            x  In          11         0.596648   0.909952   0.941012   x 
            x  In          12         0.720886   0.036094   0.465016   x 
            x  In          13         0.520520   0.665449   0.861981   x 
            x  In          14         0.395769   0.541374   0.358768   x 
            x  In          15         0.532636   0.509554   0.748664   x 
            x  In          16         0.655711   0.632602   0.260954   x 
            x  In          17         0.586870   0.396925   0.127279   x 
            x  In          18         0.710656   0.520939   0.639564   x 
            x  In          19         0.758506   0.401679   0.076706   x 
            x  In          20         0.634323   0.277526   0.566874   x 
            x  In          21         0.804002   0.281032   0.528597   x 
            x  In          22         0.929524   0.405681   0.026165   x 
            x  In          23         0.847326   0.159044  -0.004823   x 
            x  In          24         0.973431   0.283886   0.494570   x 
            x  In          25         0.765726   0.913725   0.936632   x 
            x  In          26         0.644574   0.789507   0.381429   x 
            x  In          27         0.779208   0.758235   0.786779   x 
            x  In          28         0.924191   0.906071   1.044187   x 
            x  In          29         0.835197   0.647075   0.137013   x 
            x  In          30         0.958202   0.776172   0.577677   x 
            x  In          31         0.006209   0.653550   1.038755   x 
            x  In          32         0.882655   0.526763   0.571494   x 
            x  In          33         0.053601   0.531230   0.506879   x 
            x  In          34         0.176947   0.656913   0.980130   x 
            x  In          35         0.100672   0.409296   0.979041   x 
            x  In          36         0.224329   0.535999   0.433289   x 
            x  In          37         0.014524   0.159776   0.985158   x 
            x  In          38         0.889100   0.034939   0.482521   x 
            x  In          39         0.052153   0.031481   0.501294   x 
            x  In          40         0.176696   0.152860   0.007531   x 
            x  In          41         0.087480   0.901796   1.032785   x 
            x  In          42         0.214234   0.025183   0.523850   x 
            x  In          43         0.256655   0.902618   1.004956   x 
            x  In          44         0.130071   0.778382   0.511696   x 
            x  In          45         0.301414   0.781297   0.470074   x 
            x  In          46         0.426925   0.904969   0.975537   x 
            x  In          47         0.348306   0.661103   0.919659   x 
            x  In          48         0.472889   0.784850   0.422698   x 
            xxxxxxxxxxxxxxxxxxxxxxxxxxxxxxxxxxxxxxxxxxxxxxxxxxxxxxxxxxxx


                         No user defined ionic velocities

                           -------------------------------
                                   Details of Species
                           -------------------------------

                               Mass of species in AMU
                                    P   30.9737600
                                    In  114.8180000

                          Electric Quadrupole Moment (Barn)
                                    P    1.0000000 No Isotope Defined
                                    In    0.7700000 Isotope115

                          Files used for pseudopotentials:
                                    P 3|1.8|4|4|5|30:31:32
                                    In 3|2.5|2.5|1.5|7|8|9|50:51:42U2.2U2.2

                           -------------------------------
                              k-Points For BZ Sampling
                           -------------------------------
                       MP grid size for SCF calculation is  2  2  8
                            with an offset of   0.250  0.250  0.062
                       Number of kpoints used =            20

                           -------------------------------
                               Symmetry and Constraints
                           -------------------------------

                      Maximum deviation from symmetry =  0.00000         ANG

                      Number of symmetry operations   =           1
                      Number of ionic constraints     =           3
                      Point group of crystal =     1: C1, 1, 1
                      Space group of crystal =     1: P1, P 1

             Set iprint > 1 for details on symmetry rotations/translations

                         Centre of mass is constrained
             Set iprint > 1 for details of linear ionic constraints

                         Number of cell constraints= 0
                         Cell constraints are:  1 2 3 4 5 6

                         External pressure/stress (GPa)
                          0.00000   0.00000   0.00000
                                    0.00000   0.00000
                                              0.00000
 
+---------------- MEMORY AND SCRATCH DISK ESTIMATES PER PROCESS --------------+
|                                                     Memory          Disk    |
| Baseline code, static data and system overhead      368.0 MB         0.0 MB |
| BLAS internal memory storage                          0.0 MB         0.0 MB |
| Model and support data                             3663.9 MB         0.0 MB |
| Electronic energy minimisation requirements         956.3 MB         0.0 MB |
| Force calculation requirements                       70.0 MB         0.0 MB |
|                                               ----------------------------- |
| Approx. total storage required per process         4988.2 MB         0.0 MB |
|                                                                             |
| Requirements will fluctuate during execution and may exceed these estimates |
+-----------------------------------------------------------------------------+
Calculating approximate eigenstates for fixed initial Hamiltonian
Cut-off for approx. calculation is   89.988 eV
Improving approx. states at cut-off of  450.000 eV
Resetting cut-off to  900.000 eV
Calculating total energy with cut-off of  900.000 eV.
------------------------------------------------------------------------ <-- SCF
SCF loop      Energy           Fermi           Energy gain       Timer   <-- SCF
                               energy          per atom          (sec)   <-- SCF
------------------------------------------------------------------------ <-- SCF
Initial  -9.45658401E+004  0.00000000E+000                       353.30  <-- SCF
      1  -9.42046161E+004  2.71078948E+000  -3.76275024E+000     693.46  <-- SCF
      2  -9.42050578E+004  2.71024044E+000   4.60174435E-003     924.89  <-- SCF
      3  -9.43045015E+004  3.19362913E+000   1.03587158E+000    1217.15  <-- SCF
      4  -9.43222029E+004  3.30748758E+000   1.84389898E-001    1600.80  <-- SCF
      5  -9.43129376E+004  3.64856870E+000  -9.65140828E-002    1862.60  <-- SCF
      6  -9.43129658E+004  3.72981154E+000   2.93775544E-004    2128.94  <-- SCF
      7  -9.43127039E+004  3.76974161E+000  -2.72837310E-003    2401.20  <-- SCF
      8  -9.43150763E+004  3.74349391E+000   2.47129622E-002    2653.45  <-- SCF
      9  -9.43146984E+004  3.72909268E+000  -3.93612813E-003    2916.86  <-- SCF
     10  -9.43149613E+004  3.72100980E+000   2.73832346E-003    3188.09  <-- SCF
     11  -9.43149785E+004  3.73092975E+000   1.78547823E-004    3461.85  <-- SCF
     12  -9.43150268E+004  3.72835806E+000   5.03315979E-004    3731.68  <-- SCF
     13  -9.43150272E+004  3.73206221E+000   4.52014520E-006    4018.71  <-- SCF
     14  -9.43150271E+004  3.73096835E+000  -7.56002670E-007    4302.16  <-- SCF
     15  -9.43150272E+004  3.73129314E+000   4.65285370E-007    4545.96  <-- SCF
     16  -9.43150272E+004  3.73136818E+000   9.62320115E-008    4756.05  <-- SCF
     17  -9.43150272E+004  3.73126779E+000   1.64912244E-007    4978.01  <-- SCF
     18  -9.43150272E+004  3.73132889E+000   4.36555197E-009    5182.47  <-- SCF
     19  -9.43150272E+004  3.73138681E+000  -1.08406653E-008    5372.37  <-- SCF
     20  -9.43150272E+004  3.73144447E+000   8.91736301E-009    5548.27  <-- SCF
     21  -9.43150272E+004  3.73145911E+000  -1.68857715E-011    5725.32  <-- SCF
------------------------------------------------------------------------ <-- SCF
 
Final energy, E             =  -94314.97399548     eV
Final free energy (E-TS)    =  -94315.02721206     eV
(energies not corrected for finite basis set)
 
NB est. 0K energy (E-0.5TS)      =  -94315.00060377     eV
 

 ************************** Forces **************************
 *                                                          *
 *               Cartesian components (eV/A)                *
 * -------------------------------------------------------- *
 *                         x            y            z      *
 *                                                          *
 * P               1     -0.05265     -0.00869      0.03690 *
 * P               2      0.10458      0.00606     -0.01554 *
 * P               3      0.05803     -0.05204     -0.04198 *
 * P               4     -0.07319     -0.03264      0.02253 *
 * P               5      0.04541     -0.05145     -0.01829 *
 * P               6     -0.03158     -0.06177      0.01848 *
 * P               7     -0.02321     -0.07061      0.00948 *
 * P               8      0.00975     -0.07069      0.00411 *
 * P               9     -0.02295     -0.08713     -0.00469 *
 * P              10      0.00439     -0.09811      0.00451 *
 * P              11     -0.06644     -0.08146     -0.02950 *
 * P              12      0.02172     -0.09536      0.00449 *
 * P              13     -0.13975      0.01366      0.01618 *
 * P              14     -0.08244     -0.01954     -0.00536 *
 * P              15     -0.09638     -0.01606      0.01328 *
 * P              16     -0.07520      0.04071     -0.00164 *
 * P              17     -0.05841     -0.04885     -0.00390 *
 * P              18     -0.04112      0.01072     -0.00642 *
 * P              19      0.00524      0.00834     -0.00110 *
 * P              20     -0.01082     -0.07093     -0.00379 *
 * P              21      0.05096     -0.00141     -0.00708 *
 * P              22      0.04731      0.05096      0.00798 *
 * P              23      0.10295     -0.02083     -0.01550 *
 * P              24      0.11217      0.03951     -0.00314 *
 * P              25      0.01949     -0.04214     -0.04623 *
 * P              26     -0.05707      0.05107      0.01393 *
 * P              27     -0.04397      0.04363     -0.00459 *
 * P              28      0.07004      0.08826     -0.03619 *
 * P              29     -0.03431      0.05967      0.00000 *
 * P              30      0.00468      0.06962     -0.01953 *
 * P              31      0.00957      0.06468     -0.00980 *
 * P              32     -0.00260      0.05776      0.00801 *
 * P              33      0.01175      0.07685     -0.00059 *
 * P              34     -0.01793      0.06708      0.00346 *
 * P              35      0.05060      0.05273     -0.01583 *
 * P              36     -0.02521      0.08932     -0.02524 *
 * P              37      0.15434      0.00617      0.01544 *
 * P              38      0.08972      0.04944      0.02811 *
 * P              39      0.11758      0.03428      0.00344 *
 * P              40      0.10540     -0.04011     -0.00928 *
 * P              41      0.05688      0.05998     -0.00227 *
 * P              42      0.04914     -0.00528      0.00113 *
 * P              43      0.01266     -0.02008      0.00381 *
 * P              44      0.00677      0.03320      0.00185 *
 * P              45     -0.03212      0.00379      0.00251 *
 * P              46     -0.04749     -0.06681      0.01317 *
 * P              47     -0.05081     -0.00219     -0.01936 *
 * P              48     -0.08285     -0.03860     -0.01418 *
 * In              1     -0.01801     -0.10294      0.00658 *
 * In              2     -0.11062     -0.04913      0.01075 *
 * In              3     -0.08433      0.04300      0.01957 *
 * In              4      0.08755      0.09403     -0.03075 *
 * In              5     -0.10398      0.03783      0.03921 *
 * In              6      0.01855      0.02108      0.00337 *
 * In              7      0.01639      0.06409     -0.01402 *
 * In              8     -0.06844      0.04646     -0.00245 *
 * In              9      0.01708      0.08892     -0.00803 *
 * In             10      0.04683      0.10040     -0.00615 *
 * In             11      0.03815      0.10245     -0.00120 *
 * In             12      0.05081      0.12797      0.01302 *
 * In             13      0.09048      0.02415      0.00831 *
 * In             14      0.05137      0.00210      0.01503 *
 * In             15      0.12770      0.02041      0.00008 *
 * In             16      0.09894     -0.03592      0.01071 *
 * In             17      0.10087      0.02017      0.00355 *
 * In             18      0.10252     -0.03547      0.00454 *
 * In             19      0.05572     -0.00286     -0.00072 *
 * In             20      0.07145      0.05406     -0.01009 *
 * In             21      0.00154      0.02114      0.00557 *
 * In             22      0.00088     -0.04724     -0.00223 *
 * In             23     -0.04497      0.03380      0.00858 *
 * In             24     -0.05417     -0.04734      0.00862 *
 * In             25      0.04590      0.17692      0.01938 *
 * In             26      0.09622      0.04084      0.01294 *
 * In             27      0.10166     -0.08537     -0.00186 *
 * In             28     -0.11545     -0.12545     -0.02783 *
 * In             29      0.06169     -0.07747     -0.00237 *
 * In             30      0.02402     -0.06273      0.01899 *
 * In             31     -0.00329     -0.05682      0.01188 *
 * In             32      0.03690     -0.03661     -0.00971 *
 * In             33     -0.01956     -0.08493      0.00263 *
 * In             34     -0.00895     -0.05591     -0.00462 *
 * In             35     -0.06131     -0.09039      0.00194 *
 * In             36     -0.00823     -0.11261      0.00372 *
 * In             37     -0.10031     -0.01602     -0.00068 *
 * In             38     -0.08323      0.04600      0.00230 *
 * In             39     -0.14825     -0.05687     -0.00526 *
 * In             40     -0.14193      0.03331      0.00183 *
 * In             41     -0.14449     -0.02188      0.01114 *
 * In             42     -0.11631      0.02036      0.00331 *
 * In             43     -0.06636      0.00508     -0.00008 *
 * In             44     -0.03078     -0.03726      0.00911 *
 * In             45     -0.01214     -0.00778     -0.00417 *
 * In             46     -0.01398      0.05250     -0.00326 *
 * In             47      0.01965     -0.03227      0.00490 *
 * In             48      0.04357      0.02947      0.00212 *
 *                                                          *
 ************************************************************

 Pseudo atomic calculation performed for P 3s2 3p3

 Converged in 23 iterations to a total energy of -208.0292 eV

 Pseudo atomic calculation performed for In 4d10 5s2 5p1

 Converged in 42 iterations to a total energy of -1747.4501 eV
Charge spilling parameter for spin component 1 = 0.16%

            Orbital Populations       
     Ion    Atom   Orbital             Charge
  -------------------------------------------
      P     1      S                    1.743
      P     1      Px                   1.286
      P     1      Py                   1.327
      P     1      Pz                   1.313
      P     2      S                    1.740
      P     2      Px                   1.269
      P     2      Py                   1.330
      P     2      Pz                   1.328
      P     3      S                    1.735
      P     3      Px                   1.346
      P     3      Py                   1.265
      P     3      Pz                   1.328
      P     4      S                    1.738
      P     4      Px                   1.326
      P     4      Py                   1.304
      P     4      Pz                   1.303
      P     5      S                    1.733
      P     5      Px                   1.319
      P     5      Py                   1.300
      P     5      Pz                   1.324
      P     6      S                    1.733
      P     6      Px                   1.322
      P     6      Py                   1.302
      P     6      Pz                   1.317
      P     7      S                    1.733
      P     7      Px                   1.314
      P     7      Py                   1.310
      P     7      Pz                   1.317
      P     8      S                    1.733
      P     8      Px                   1.315
      P     8      Py                   1.309
      P     8      Pz                   1.318
      P     9      S                    1.733
      P     9      Px                   1.317
      P     9      Py                   1.309
      P     9      Pz                   1.315
      P    10      S                    1.733
      P    10      Px                   1.310
      P    10      Py                   1.311
      P    10      Pz                   1.321
      P    11      S                    1.731
      P    11      Px                   1.332
      P    11      Py                   1.301
      P    11      Pz                   1.309
      P    12      S                    1.733
      P    12      Px                   1.312
      P    12      Py                   1.294
      P    12      Pz                   1.325
      P    13      S                    1.735
      P    13      Px                   1.311
      P    13      Py                   1.307
      P    13      Pz                   1.317
      P    14      S                    1.737
      P    14      Px                   1.299
      P    14      Py                   1.315
      P    14      Pz                   1.319
      P    15      S                    1.738
      P    15      Px                   1.315
      P    15      Py                   1.314
      P    15      Pz                   1.306
      P    16      S                    1.740
      P    16      Px                   1.306
      P    16      Py                   1.321
      P    16      Pz                   1.303
      P    17      S                    1.735
      P    17      Px                   1.317
      P    17      Py                   1.308
      P    17      Pz                   1.312
      P    18      S                    1.736
      P    18      Px                   1.312
      P    18      Py                   1.313
      P    18      Pz                   1.310
      P    19      S                    1.736
      P    19      Px                   1.310
      P    19      Py                   1.312
      P    19      Pz                   1.315
      P    20      S                    1.733
      P    20      Px                   1.313
      P    20      Py                   1.312
      P    20      Pz                   1.317
      P    21      S                    1.735
      P    21      Px                   1.305
      P    21      Py                   1.313
      P    21      Pz                   1.321
      P    22      S                    1.738
      P    22      Px                   1.303
      P    22      Py                   1.314
      P    22      Pz                   1.316
      P    23      S                    1.735
      P    23      Px                   1.299
      P    23      Py                   1.307
      P    23      Pz                   1.330
      P    24      S                    1.737
      P    24      Px                   1.292
      P    24      Py                   1.321
      P    24      Pz                   1.322
      P    25      S                    1.764
      P    25      Px                   1.241
      P    25      Py                   1.241
      P    25      Pz                   1.389
      P    26      S                    1.740
      P    26      Px                   1.306
      P    26      Py                   1.297
      P    26      Pz                   1.318
      P    27      S                    1.744
      P    27      Px                   1.286
      P    27      Py                   1.341
      P    27      Pz                   1.296
      P    28      S                    1.740
      P    28      Px                   1.287
      P    28      Py                   1.332
      P    28      Pz                   1.311
      P    29      S                    1.738
      P    29      Px                   1.308
      P    29      Py                   1.318
      P    29      Pz                   1.307
      P    30      S                    1.741
      P    30      Px                   1.300
      P    30      Py                   1.320
      P    30      Pz                   1.307
      P    31      S                    1.739
      P    31      Px                   1.308
      P    31      Py                   1.314
      P    31      Pz                   1.310
      P    32      S                    1.737
      P    32      Px                   1.308
      P    32      Py                   1.315
      P    32      Pz                   1.312
      P    33      S                    1.739
      P    33      Px                   1.308
      P    33      Py                   1.314
      P    33      Pz                   1.310
      P    34      S                    1.738
      P    34      Px                   1.312
      P    34      Py                   1.315
      P    34      Pz                   1.306
      P    35      S                    1.742
      P    35      Px                   1.298
      P    35      Py                   1.322
      P    35      Pz                   1.307
      P    36      S                    1.739
      P    36      Px                   1.308
      P    36      Py                   1.320
      P    36      Pz                   1.299
      P    37      S                    1.734
      P    37      Px                   1.290
      P    37      Py                   1.316
      P    37      Pz                   1.331
      P    38      S                    1.744
      P    38      Px                   1.275
      P    38      Py                   1.295
      P    38      Pz                   1.331
      P    39      S                    1.736
      P    39      Px                   1.295
      P    39      Py                   1.322
      P    39      Pz                   1.319
      P    40      S                    1.733
      P    40      Px                   1.308
      P    40      Py                   1.304
      P    40      Pz                   1.330
      P    41      S                    1.737
      P    41      Px                   1.302
      P    41      Py                   1.318
      P    41      Pz                   1.316
      P    42      S                    1.734
      P    42      Px                   1.309
      P    42      Py                   1.310
      P    42      Pz                   1.321
      P    43      S                    1.735
      P    43      Px                   1.311
      P    43      Py                   1.312
      P    43      Pz                   1.315
      P    44      S                    1.737
      P    44      Px                   1.308
      P    44      Py                   1.314
      P    44      Pz                   1.311
      P    45      S                    1.736
      P    45      Px                   1.315
      P    45      Py                   1.312
      P    45      Pz                   1.309
      P    46      S                    1.733
      P    46      Px                   1.318
      P    46      Py                   1.309
      P    46      Pz                   1.312
      P    47      S                    1.735
      P    47      Px                   1.317
      P    47      Py                   1.316
      P    47      Pz                   1.305
      P    48      S                    1.733
      P    48      Px                   1.324
      P    48      Py                   1.308
      P    48      Pz                   1.308
     In     1      Dzz                  1.998
     In     1      Dzy                  1.998
     In     1      Dzx                  1.998
     In     1      Dxx-yy               1.998
     In     1      Dxy                  1.999
     In     1      S                    1.430
     In     1      Px                   0.480
     In     1      Py                   0.447
     In     1      Pz                   0.490
     In     1      S                   -0.506
     In     2      Dzz                  1.998
     In     2      Dzy                  1.999
     In     2      Dzx                  1.998
     In     2      Dxx-yy               1.997
     In     2      Dxy                  1.998
     In     2      S                    1.433
     In     2      Px                   0.497
     In     2      Py                   0.461
     In     2      Pz                   0.478
     In     2      S                   -0.518
     In     3      Dzz                  1.996
     In     3      Dzy                  1.999
     In     3      Dzx                  1.998
     In     3      Dxx-yy               1.996
     In     3      Dxy                  1.997
     In     3      S                    1.482
     In     3      Px                   0.496
     In     3      Py                   0.519
     In     3      Pz                   0.427
     In     3      S                   -0.538
     In     4      Dzz                  1.998
     In     4      Dzy                  1.998
     In     4      Dzx                  1.998
     In     4      Dxx-yy               1.997
     In     4      Dxy                  1.998
     In     4      S                    1.432
     In     4      Px                   0.494
     In     4      Py                   0.477
     In     4      Pz                   0.453
     In     4      S                   -0.506
     In     5      Dzz                  1.997
     In     5      Dzy                  1.998
     In     5      Dzx                  1.998
     In     5      Dxx-yy               1.997
     In     5      Dxy                  1.998
     In     5      S                    1.430
     In     5      Px                   0.482
     In     5      Py                   0.498
     In     5      Pz                   0.468
     In     5      S                   -0.537
     In     6      Dzz                  1.998
     In     6      Dzy                  1.998
     In     6      Dzx                  1.998
     In     6      Dxx-yy               1.997
     In     6      Dxy                  1.998
     In     6      S                    1.419
     In     6      Px                   0.466
     In     6      Py                   0.493
     In     6      Pz                   0.490
     In     6      S                   -0.520
     In     7      Dzz                  1.997
     In     7      Dzy                  1.998
     In     7      Dzx                  1.998
     In     7      Dxx-yy               1.997
     In     7      Dxy                  1.998
     In     7      S                    1.422
     In     7      Px                   0.477
     In     7      Py                   0.491
     In     7      Pz                   0.481
     In     7      S                   -0.540
     In     8      Dzz                  1.997
     In     8      Dzy                  1.998
     In     8      Dzx                  1.998
     In     8      Dxx-yy               1.997
     In     8      Dxy                  1.998
     In     8      S                    1.428
     In     8      Px                   0.481
     In     8      Py                   0.491
     In     8      Pz                   0.478
     In     8      S                   -0.544
     In     9      Dzz                  1.997
     In     9      Dzy                  1.998
     In     9      Dzx                  1.998
     In     9      Dxx-yy               1.997
     In     9      Dxy                  1.998
     In     9      S                    1.423
     In     9      Px                   0.477
     In     9      Py                   0.491
     In     9      Pz                   0.480
     In     9      S                   -0.541
     In    10      Dzz                  1.997
     In    10      Dzy                  1.998
     In    10      Dzx                  1.998
     In    10      Dxx-yy               1.997
     In    10      Dxy                  1.998
     In    10      S                    1.423
     In    10      Px                   0.476
     In    10      Py                   0.491
     In    10      Pz                   0.482
     In    10      S                   -0.536
     In    11      Dzz                  1.997
     In    11      Dzy                  1.998
     In    11      Dzx                  1.998
     In    11      Dxx-yy               1.997
     In    11      Dxy                  1.998
     In    11      S                    1.428
     In    11      Px                   0.474
     In    11      Py                   0.493
     In    11      Pz                   0.481
     In    11      S                   -0.540
     In    12      Dzz                  1.997
     In    12      Dzy                  1.998
     In    12      Dzx                  1.998
     In    12      Dxx-yy               1.997
     In    12      Dxy                  1.998
     In    12      S                    1.428
     In    12      Px                   0.474
     In    12      Py                   0.501
     In    12      Pz                   0.479
     In    12      S                   -0.546
     In    13      Dzz                  1.998
     In    13      Dzy                  1.998
     In    13      Dzx                  1.998
     In    13      Dxx-yy               1.997
     In    13      Dxy                  1.998
     In    13      S                    1.427
     In    13      Px                   0.465
     In    13      Py                   0.478
     In    13      Pz                   0.493
     In    13      S                   -0.525
     In    14      Dzz                  1.998
     In    14      Dzy                  1.998
     In    14      Dzx                  1.998
     In    14      Dxx-yy               1.998
     In    14      Dxy                  1.999
     In    14      S                    1.424
     In    14      Px                   0.472
     In    14      Py                   0.469
     In    14      Pz                   0.494
     In    14      S                   -0.513
     In    15      Dzz                  1.998
     In    15      Dzy                  1.998
     In    15      Dzx                  1.998
     In    15      Dxx-yy               1.997
     In    15      Dxy                  1.998
     In    15      S                    1.429
     In    15      Px                   0.494
     In    15      Py                   0.470
     In    15      Pz                   0.465
     In    15      S                   -0.526
     In    16      Dzz                  1.998
     In    16      Dzy                  1.998
     In    16      Dzx                  1.998
     In    16      Dxx-yy               1.997
     In    16      Dxy                  1.998
     In    16      S                    1.435
     In    16      Px                   0.497
     In    16      Py                   0.465
     In    16      Pz                   0.468
     In    16      S                   -0.535
     In    17      Dzz                  1.998
     In    17      Dzy                  1.998
     In    17      Dzx                  1.998
     In    17      Dxx-yy               1.997
     In    17      Dxy                  1.998
     In    17      S                    1.412
     In    17      Px                   0.467
     In    17      Py                   0.484
     In    17      Pz                   0.495
     In    17      S                   -0.522
     In    18      Dzz                  1.998
     In    18      Dzy                  1.998
     In    18      Dzx                  1.998
     In    18      Dxx-yy               1.997
     In    18      Dxy                  1.998
     In    18      S                    1.412
     In    18      Px                   0.469
     In    18      Py                   0.477
     In    18      Pz                   0.494
     In    18      S                   -0.518
     In    19      Dzz                  1.998
     In    19      Dzy                  1.998
     In    19      Dzx                  1.998
     In    19      Dxx-yy               1.997
     In    19      Dxy                  1.998
     In    19      S                    1.416
     In    19      Px                   0.473
     In    19      Py                   0.482
     In    19      Pz                   0.490
     In    19      S                   -0.524
     In    20      Dzz                  1.997
     In    20      Dzy                  1.998
     In    20      Dzx                  1.998
     In    20      Dxx-yy               1.997
     In    20      Dxy                  1.998
     In    20      S                    1.421
     In    20      Px                   0.473
     In    20      Py                   0.489
     In    20      Pz                   0.488
     In    20      S                   -0.535
     In    21      Dzz                  1.997
     In    21      Dzy                  1.998
     In    21      Dzx                  1.998
     In    21      Dxx-yy               1.997
     In    21      Dxy                  1.998
     In    21      S                    1.421
     In    21      Px                   0.477
     In    21      Py                   0.484
     In    21      Pz                   0.484
     In    21      S                   -0.530
     In    22      Dzz                  1.998
     In    22      Dzy                  1.998
     In    22      Dzx                  1.998
     In    22      Dxx-yy               1.997
     In    22      Dxy                  1.998
     In    22      S                    1.419
     In    22      Px                   0.479
     In    22      Py                   0.478
     In    22      Pz                   0.486
     In    22      S                   -0.520
     In    23      Dzz                  1.997
     In    23      Dzy                  1.998
     In    23      Dzx                  1.998
     In    23      Dxx-yy               1.997
     In    23      Dxy                  1.998
     In    23      S                    1.423
     In    23      Px                   0.479
     In    23      Py                   0.487
     In    23      Pz                   0.477
     In    23      S                   -0.534
     In    24      Dzz                  1.998
     In    24      Dzy                  1.998
     In    24      Dzx                  1.998
     In    24      Dxx-yy               1.997
     In    24      Dxy                  1.998
     In    24      S                    1.419
     In    24      Px                   0.486
     In    24      Py                   0.478
     In    24      Pz                   0.482
     In    24      S                   -0.524
     In    25      Dzz                  1.998
     In    25      Dzy                  1.998
     In    25      Dzx                  1.998
     In    25      Dxx-yy               1.997
     In    25      Dxy                  1.998
     In    25      S                    1.423
     In    25      Px                   0.458
     In    25      Py                   0.511
     In    25      Pz                   0.483
     In    25      S                   -0.505
     In    26      Dzz                  1.998
     In    26      Dzy                  1.998
     In    26      Dzx                  1.998
     In    26      Dxx-yy               1.997
     In    26      Dxy                  1.998
     In    26      S                    1.431
     In    26      Px                   0.461
     In    26      Py                   0.486
     In    26      Pz                   0.489
     In    26      S                   -0.537
     In    27      Dzz                  1.998
     In    27      Dzy                  1.998
     In    27      Dzx                  1.998
     In    27      Dxx-yy               1.998
     In    27      Dxy                  1.998
     In    27      S                    1.439
     In    27      Px                   0.512
     In    27      Py                   0.443
     In    27      Pz                   0.476
     In    27      S                   -0.528
     In    28      Dzz                  1.998
     In    28      Dzy                  1.998
     In    28      Dzx                  1.997
     In    28      Dxx-yy               1.998
     In    28      Dxy                  1.998
     In    28      S                    1.413
     In    28      Px                   0.503
     In    28      Py                   0.461
     In    28      Pz                   0.466
     In    28      S                   -0.510
     In    29      Dzz                  1.998
     In    29      Dzy                  1.998
     In    29      Dzx                  1.998
     In    29      Dxx-yy               1.997
     In    29      Dxy                  1.998
     In    29      S                    1.413
     In    29      Px                   0.474
     In    29      Py                   0.473
     In    29      Pz                   0.491
     In    29      S                   -0.496
     In    30      Dzz                  1.998
     In    30      Dzy                  1.999
     In    30      Dzx                  1.998
     In    30      Dxx-yy               1.998
     In    30      Dxy                  1.999
     In    30      S                    1.430
     In    30      Px                   0.485
     In    30      Py                   0.457
     In    30      Pz                   0.476
     In    30      S                   -0.518
     In    31      Dzz                  1.998
     In    31      Dzy                  1.998
     In    31      Dzx                  1.998
     In    31      Dxx-yy               1.997
     In    31      Dxy                  1.999
     In    31      S                    1.420
     In    31      Px                   0.480
     In    31      Py                   0.470
     In    31      Pz                   0.486
     In    31      S                   -0.514
     In    32      Dzz                  1.998
     In    32      Dzy                  1.998
     In    32      Dzx                  1.998
     In    32      Dxx-yy               1.997
     In    32      Dxy                  1.998
     In    32      S                    1.418
     In    32      Px                   0.477
     In    32      Py                   0.476
     In    32      Pz                   0.488
     In    32      S                   -0.514
     In    33      Dzz                  1.998
     In    33      Dzy                  1.998
     In    33      Dzx                  1.998
     In    33      Dxx-yy               1.997
     In    33      Dxy                  1.999
     In    33      S                    1.419
     In    33      Px                   0.481
     In    33      Py                   0.472
     In    33      Pz                   0.485
     In    33      S                   -0.516
     In    34      Dzz                  1.998
     In    34      Dzy                  1.998
     In    34      Dzx                  1.998
     In    34      Dxx-yy               1.997
     In    34      Dxy                  1.998
     In    34      S                    1.420
     In    34      Px                   0.482
     In    34      Py                   0.473
     In    34      Pz                   0.487
     In    34      S                   -0.519
     In    35      Dzz                  1.998
     In    35      Dzy                  1.998
     In    35      Dzx                  1.998
     In    35      Dxx-yy               1.997
     In    35      Dxy                  1.999
     In    35      S                    1.416
     In    35      Px                   0.484
     In    35      Py                   0.468
     In    35      Pz                   0.485
     In    35      S                   -0.511
     In    36      Dzz                  1.998
     In    36      Dzy                  1.998
     In    36      Dzx                  1.998
     In    36      Dxx-yy               1.997
     In    36      Dxy                  1.998
     In    36      S                    1.419
     In    36      Px                   0.480
     In    36      Py                   0.472
     In    36      Pz                   0.490
     In    36      S                   -0.511
     In    37      Dzz                  1.998
     In    37      Dzy                  1.999
     In    37      Dzx                  1.998
     In    37      Dxx-yy               1.997
     In    37      Dxy                  1.998
     In    37      S                    1.421
     In    37      Px                   0.493
     In    37      Py                   0.479
     In    37      Pz                   0.470
     In    37      S                   -0.529
     In    38      Dzz                  1.997
     In    38      Dzy                  1.998
     In    38      Dzx                  1.998
     In    38      Dxx-yy               1.997
     In    38      Dxy                  1.998
     In    38      S                    1.419
     In    38      Px                   0.479
     In    38      Py                   0.490
     In    38      Pz                   0.470
     In    38      S                   -0.515
     In    39      Dzz                  1.997
     In    39      Dzy                  1.998
     In    39      Dzx                  1.998
     In    39      Dxx-yy               1.997
     In    39      Dxy                  1.998
     In    39      S                    1.439
     In    39      Px                   0.508
     In    39      Py                   0.482
     In    39      Pz                   0.469
     In    39      S                   -0.548
     In    40      Dzz                  1.997
     In    40      Dzy                  1.998
     In    40      Dzx                  1.998
     In    40      Dxx-yy               1.997
     In    40      Dxy                  1.998
     In    40      S                    1.434
     In    40      Px                   0.496
     In    40      Py                   0.492
     In    40      Pz                   0.457
     In    40      S                   -0.512
     In    41      Dzz                  1.998
     In    41      Dzy                  1.999
     In    41      Dzx                  1.998
     In    41      Dxx-yy               1.997
     In    41      Dxy                  1.998
     In    41      S                    1.428
     In    41      Px                   0.491
     In    41      Py                   0.474
     In    41      Pz                   0.472
     In    41      S                   -0.532
     In    42      Dzz                  1.997
     In    42      Dzy                  1.999
     In    42      Dzx                  1.998
     In    42      Dxx-yy               1.997
     In    42      Dxy                  1.998
     In    42      S                    1.425
     In    42      Px                   0.491
     In    42      Py                   0.484
     In    42      Pz                   0.469
     In    42      S                   -0.545
     In    43      Dzz                  1.998
     In    43      Dzy                  1.999
     In    43      Dzx                  1.998
     In    43      Dxx-yy               1.997
     In    43      Dxy                  1.998
     In    43      S                    1.425
     In    43      Px                   0.484
     In    43      Py                   0.482
     In    43      Pz                   0.478
     In    43      S                   -0.533
     In    44      Dzz                  1.998
     In    44      Dzy                  1.998
     In    44      Dzx                  1.998
     In    44      Dxx-yy               1.997
     In    44      Dxy                  1.998
     In    44      S                    1.421
     In    44      Px                   0.484
     In    44      Py                   0.474
     In    44      Pz                   0.481
     In    44      S                   -0.523
     In    45      Dzz                  1.998
     In    45      Dzy                  1.998
     In    45      Dzx                  1.998
     In    45      Dxx-yy               1.997
     In    45      Dxy                  1.998
     In    45      S                    1.422
     In    45      Px                   0.480
     In    45      Py                   0.479
     In    45      Pz                   0.484
     In    45      S                   -0.526
     In    46      Dzz                  1.997
     In    46      Dzy                  1.998
     In    46      Dzx                  1.998
     In    46      Dxx-yy               1.997
     In    46      Dxy                  1.998
     In    46      S                    1.425
     In    46      Px                   0.478
     In    46      Py                   0.487
     In    46      Pz                   0.481
     In    46      S                   -0.536
     In    47      Dzz                  1.998
     In    47      Dzy                  1.998
     In    47      Dzx                  1.998
     In    47      Dxx-yy               1.997
     In    47      Dxy                  1.998
     In    47      S                    1.419
     In    47      Px                   0.476
     In    47      Py                   0.478
     In    47      Pz                   0.490
     In    47      S                   -0.522
     In    48      Dzz                  1.997
     In    48      Dzy                  1.998
     In    48      Dzx                  1.998
     In    48      Dxx-yy               1.997
     In    48      Dxy                  1.998
     In    48      S                    1.421
     In    48      Px                   0.472
     In    48      Py                   0.485
     In    48      Pz                   0.486
     In    48      S                   -0.526
  -------------------------------------------
                           Total:     864.000
  -------------------------------------------

     Atomic Populations (Mulliken)
     -----------------------------
Species          Ion     s       p       d       f      Total   Charge (e)
==========================================================================
  P               1     1.743   3.926   0.000   0.000   5.669    -0.669
  P               2     1.740   3.927   0.000   0.000   5.667    -0.667
  P               3     1.735   3.938   0.000   0.000   5.673    -0.673
  P               4     1.738   3.933   0.000   0.000   5.672    -0.672
  P               5     1.733   3.943   0.000   0.000   5.675    -0.675
  P               6     1.733   3.941   0.000   0.000   5.674    -0.674
  P               7     1.733   3.941   0.000   0.000   5.674    -0.674
  P               8     1.733   3.942   0.000   0.000   5.675    -0.675
  P               9     1.733   3.940   0.000   0.000   5.673    -0.673
  P              10     1.733   3.941   0.000   0.000   5.674    -0.674
  P              11     1.731   3.942   0.000   0.000   5.673    -0.673
  P              12     1.733   3.931   0.000   0.000   5.663    -0.663
  P              13     1.735   3.935   0.000   0.000   5.671    -0.671
  P              14     1.737   3.933   0.000   0.000   5.670    -0.670
  P              15     1.738   3.935   0.000   0.000   5.673    -0.673
  P              16     1.740   3.930   0.000   0.000   5.670    -0.670
  P              17     1.735   3.937   0.000   0.000   5.672    -0.672
  P              18     1.736   3.935   0.000   0.000   5.671    -0.671
  P              19     1.736   3.938   0.000   0.000   5.673    -0.673
  P              20     1.733   3.941   0.000   0.000   5.675    -0.675
  P              21     1.735   3.939   0.000   0.000   5.674    -0.674
  P              22     1.738   3.933   0.000   0.000   5.671    -0.671
  P              23     1.735   3.936   0.000   0.000   5.671    -0.671
  P              24     1.737   3.935   0.000   0.000   5.672    -0.672
  P              25     1.764   3.871   0.000   0.000   5.634    -0.634
  P              26     1.740   3.921   0.000   0.000   5.661    -0.661
  P              27     1.744   3.922   0.000   0.000   5.666    -0.666
  P              28     1.740   3.930   0.000   0.000   5.670    -0.670
  P              29     1.738   3.933   0.000   0.000   5.671    -0.671
  P              30     1.741   3.927   0.000   0.000   5.668    -0.668
  P              31     1.739   3.933   0.000   0.000   5.671    -0.671
  P              32     1.737   3.935   0.000   0.000   5.672    -0.672
  P              33     1.739   3.932   0.000   0.000   5.671    -0.671
  P              34     1.738   3.933   0.000   0.000   5.670    -0.670
  P              35     1.742   3.927   0.000   0.000   5.670    -0.670
  P              36     1.739   3.926   0.000   0.000   5.666    -0.666
  P              37     1.734   3.938   0.000   0.000   5.672    -0.672
  P              38     1.744   3.902   0.000   0.000   5.646    -0.646
  P              39     1.736   3.936   0.000   0.000   5.671    -0.671
  P              40     1.733   3.941   0.000   0.000   5.674    -0.674
  P              41     1.737   3.936   0.000   0.000   5.672    -0.672
  P              42     1.734   3.940   0.000   0.000   5.674    -0.674
  P              43     1.735   3.939   0.000   0.000   5.674    -0.674
  P              44     1.737   3.934   0.000   0.000   5.671    -0.671
  P              45     1.736   3.936   0.000   0.000   5.671    -0.671
  P              46     1.733   3.940   0.000   0.000   5.673    -0.673
  P              47     1.735   3.937   0.000   0.000   5.672    -0.672
  P              48     1.733   3.940   0.000   0.000   5.673    -0.673
  In              1     0.924   1.417   9.990   0.000  12.331     0.669
  In              2     0.916   1.436   9.990   0.000  12.342     0.658
  In              3     0.944   1.442   9.986   0.000  12.373     0.627
  In              4     0.927   1.425   9.990   0.000  12.341     0.659
  In              5     0.892   1.447   9.988   0.000  12.328     0.672
  In              6     0.899   1.448   9.989   0.000  12.336     0.664
  In              7     0.882   1.449   9.989   0.000  12.320     0.680
  In              8     0.884   1.449   9.989   0.000  12.323     0.677
  In              9     0.883   1.449   9.989   0.000  12.320     0.680
  In             10     0.887   1.449   9.989   0.000  12.325     0.675
  In             11     0.888   1.447   9.989   0.000  12.323     0.677
  In             12     0.882   1.454   9.988   0.000  12.325     0.675
  In             13     0.902   1.436   9.989   0.000  12.328     0.672
  In             14     0.911   1.435   9.990   0.000  12.336     0.664
  In             15     0.902   1.429   9.989   0.000  12.321     0.679
  In             16     0.900   1.430   9.989   0.000  12.319     0.681
  In             17     0.890   1.446   9.989   0.000  12.325     0.675
  In             18     0.894   1.441   9.990   0.000  12.324     0.676
  In             19     0.892   1.445   9.989   0.000  12.326     0.674
  In             20     0.886   1.450   9.989   0.000  12.325     0.675
  In             21     0.891   1.446   9.989   0.000  12.325     0.675
  In             22     0.899   1.442   9.989   0.000  12.330     0.670
  In             23     0.889   1.443   9.989   0.000  12.321     0.679
  In             24     0.894   1.445   9.989   0.000  12.329     0.671
  In             25     0.918   1.452   9.988   0.000  12.359     0.641
  In             26     0.893   1.436   9.989   0.000  12.318     0.682
  In             27     0.911   1.430   9.989   0.000  12.330     0.670
  In             28     0.903   1.430   9.989   0.000  12.322     0.678
  In             29     0.917   1.438   9.990   0.000  12.344     0.656
  In             30     0.912   1.418   9.990   0.000  12.320     0.680
  In             31     0.906   1.437   9.990   0.000  12.332     0.668
  In             32     0.903   1.441   9.989   0.000  12.333     0.667
  In             33     0.903   1.438   9.990   0.000  12.331     0.669
  In             34     0.902   1.442   9.989   0.000  12.333     0.667
  In             35     0.905   1.437   9.990   0.000  12.331     0.669
  In             36     0.908   1.442   9.990   0.000  12.339     0.661
  In             37     0.892   1.442   9.989   0.000  12.323     0.677
  In             38     0.904   1.440   9.989   0.000  12.333     0.667
  In             39     0.891   1.460   9.988   0.000  12.339     0.661
  In             40     0.922   1.444   9.989   0.000  12.355     0.645
  In             41     0.896   1.437   9.990   0.000  12.323     0.677
  In             42     0.880   1.445   9.989   0.000  12.314     0.686
  In             43     0.892   1.444   9.989   0.000  12.326     0.674
  In             44     0.897   1.439   9.990   0.000  12.326     0.674
  In             45     0.896   1.443   9.989   0.000  12.328     0.672
  In             46     0.889   1.446   9.989   0.000  12.324     0.676
  In             47     0.897   1.443   9.989   0.000  12.329     0.671
  In             48     0.896   1.444   9.989   0.000  12.328     0.672
==========================================================================

                 Bond                   Population      Length (A)
======================================================================
              P 1  -- In 3                   0.68        2.47150
              P 25 -- In 27                  0.78        2.47344
              P 2  -- In 3                   0.67        2.47634
              P 3  -- In 3                   0.64        2.48611
              P 25 -- In 28                  0.73        2.49544
              P 25 -- In 25                  0.71        2.50694
              P 26 -- In 16                  0.59        2.50815
              P 14 -- In 4                   0.62        2.50876
              P 38 -- In 39                  0.64        2.51289
              P 11 -- In 26                  1.34        2.51559
              P 37 -- In 40                  0.61        2.51783
              P 13 -- In 15                  0.59        2.51871
              P 48 -- In 13                  1.34        2.52115
              P 12 -- In 12                  0.62        2.52253
              P 5  -- In 5                   0.60        2.52395
              P 4  -- In 6                   1.33        2.52605
              P 9  -- In 11                  1.33        2.52778
              P 6  -- In 7                   1.32        2.52794
              P 10 -- In 12                  1.32        2.52800
              P 46 -- In 48                  1.34        2.52802
              P 47 -- In 14                  1.35        2.52837
              P 17 -- In 20                  1.33        2.52928
              P 6  -- In 6                   0.59        2.53030
              P 7  -- In 9                   1.32        2.53114
              P 20 -- In 10                  1.32        2.53141
              P 8  -- In 46                  1.33        2.53196
              P 5  -- In 8                   1.32        2.53220
              P 15 -- In 17                  1.35        2.53373
              P 18 -- In 19                  1.33        2.53412
              P 45 -- In 47                  1.35        2.53417
              P 40 -- In 5                   0.59        2.53573
              P 13 -- In 16                  1.29        2.53598
              P 8  -- In 8                   0.58        2.53721
              P 7  -- In 7                   0.58        2.53730
              P 3  -- In 5                   1.26        2.53731
              P 10 -- In 10                  0.57        2.53794
              P 38 -- In 28                  1.17        2.53795
              P 19 -- In 21                  1.33        2.53804
              P 43 -- In 45                  1.34        2.53943
              P 9  -- In 9                   0.57        2.53949
              P 14 -- In 15                  1.29        2.54021
              P 11 -- In 11                  0.60        2.54151
              P 20 -- In 20                  0.57        2.54162
              P 35 -- In 2                   1.32        2.54245
              P 21 -- In 23                  1.31        2.54389
              P 29 -- In 32                  1.33        2.54408
              P 16 -- In 18                  1.34        2.54422
              P 34 -- In 36                  1.34        2.54484
              P 40 -- In 40                  0.58        2.54529
              P 23 -- In 23                  0.58        2.54584
              P 42 -- In 43                  1.32        2.54587
              P 39 -- In 42                  0.60        2.54599
              P 32 -- In 22                  1.33        2.54623
              P 42 -- In 42                  0.57        2.54689
              P 46 -- In 46                  0.56        2.54717
              P 36 -- In 1                   1.32        2.54717
              P 44 -- In 34                  1.34        2.54812
              P 38 -- In 38                  0.61        2.54852
              P 28 -- In 30                  1.32        2.54871
              P 12 -- In 38                  0.60        2.54882
              P 12 -- In 25                  1.25        2.54904
              P 21 -- In 21                  0.56        2.54976
              P 23 -- In 37                  0.60        2.55016
              P 39 -- In 41                  1.31        2.55049
              P 37 -- In 39                  1.29        2.55174
              P 22 -- In 24                  1.32        2.55246
              P 26 -- In 27                  1.23        2.55258
              P 23 -- In 38                  1.29        2.55277
              P 37 -- In 37                  0.58        2.55359
              P 40 -- In 42                  1.30        2.55380
              P 24 -- In 24                  0.56        2.55445
              P 43 -- In 43                  0.56        2.55466
              P 41 -- In 44                  1.33        2.55466
              P 39 -- In 39                  0.54        2.55484
              P 46 -- In 11                  0.55        2.55510
              P 6  -- In 20                  0.55        2.55511
              P 9  -- In 12                  0.56        2.55543
              P 11 -- In 25                  0.55        2.55545
              P 33 -- In 35                  1.34        2.55600
              P 31 -- In 33                  1.33        2.55615
              P 5  -- In 7                   0.56        2.55638
              P 17 -- In 17                  0.57        2.55674
              P 48 -- In 48                  0.58        2.55689
              P 42 -- In 8                   0.57        2.55701
              P 24 -- In 37                  1.30        2.55729
              P 8  -- In 9                   0.56        2.55749
              P 7  -- In 10                  0.56        2.55752
              P 19 -- In 19                  0.56        2.55781
              P 10 -- In 23                  0.59        2.55862
              P 3  -- In 6                   0.53        2.55865
              P 41 -- In 41                  0.55        2.55888
              P 27 -- In 29                  1.32        2.55979
              P 30 -- In 31                  1.34        2.56011
              P 43 -- In 46                  0.56        2.56054
              P 20 -- In 21                  0.56        2.56099
              P 45 -- In 45                  0.55        2.56194
              P 28 -- In 28                  0.52        2.56239
              P 21 -- In 24                  0.58        2.56306
              P 18 -- In 18                  0.55        2.56314
              P 1  -- In 4                   1.16        2.56315
              P 24 -- In 2                   0.58        2.56347
              P 45 -- In 48                  0.55        2.56369
              P 41 -- In 43                  0.57        2.56380
              P 47 -- In 47                  0.57        2.56469
              P 17 -- In 19                  0.55        2.56488
              P 2  -- In 40                  1.20        2.56490
              P 22 -- In 22                  0.55        2.56492
              P 4  -- In 17                  0.55        2.56538
              P 44 -- In 45                  0.55        2.56617
              P 32 -- In 32                  0.55        2.56659
              P 31 -- In 34                  0.56        2.56663
              P 34 -- In 47                  0.55        2.56704
              P 18 -- In 32                  0.55        2.56858
              P 32 -- In 33                  0.55        2.56869
              P 34 -- In 34                  0.54        2.56870
              P 48 -- In 26                  0.54        2.56871
              P 29 -- In 29                  0.53        2.56877
              P 36 -- In 36                  0.56        2.56891
              P 19 -- In 22                  0.56        2.56940
              P 44 -- In 44                  0.55        2.57136
              P 28 -- In 41                  0.58        2.57189
              P 26 -- In 26                  0.60        2.57215
              P 29 -- In 31                  0.56        2.57229
              P 33 -- In 36                  0.55        2.57241
              P 15 -- In 18                  0.56        2.57315
              P 30 -- In 44                  0.56        2.57343
              P 2  -- In 2                   0.53        2.57347
              P 47 -- In 13                  0.55        2.57427
              P 33 -- In 33                  0.54        2.57563
              P 31 -- In 31                  0.54        2.57845
              P 22 -- In 35                  0.57        2.57850
              P 13 -- In 13                  0.56        2.58027
              P 4  -- In 4                   0.54        2.58084
              P 36 -- In 14                  0.55        2.58192
              P 15 -- In 15                  0.53        2.58553
              P 16 -- In 29                  0.56        2.58731
              P 35 -- In 35                  0.54        2.58747
              P 27 -- In 30                  0.59        2.58936
              P 16 -- In 16                  0.52        2.59036
              P 14 -- In 14                  0.54        2.59106
              P 35 -- In 1                   0.55        2.59175
              P 30 -- In 30                  0.51        2.59312
              P 1  -- In 1                   0.50        2.61351
              P 27 -- In 27                  0.48        2.61548
======================================================================

 Hirshfeld supercell size:           1           1           4
Standard grid dimensions: 250 250 180
Fine grid dimensions:     250 250 180


     Hirshfeld Analysis
     ------------------
Species   Ion     Hirshfeld Charge (e)
======================================
  P        1                -0.24
  P        2                -0.23
  P        3                -0.24
  P        4                -0.24
  P        5                -0.24
  P        6                -0.24
  P        7                -0.24
  P        8                -0.24
  P        9                -0.24
  P       10                -0.24
  P       11                -0.24
  P       12                -0.24
  P       13                -0.24
  P       14                -0.24
  P       15                -0.24
  P       16                -0.24
  P       17                -0.24
  P       18                -0.24
  P       19                -0.24
  P       20                -0.24
  P       21                -0.24
  P       22                -0.24
  P       23                -0.24
  P       24                -0.24
  P       25                -0.26
  P       26                -0.24
  P       27                -0.24
  P       28                -0.23
  P       29                -0.24
  P       30                -0.24
  P       31                -0.24
  P       32                -0.24
  P       33                -0.24
  P       34                -0.24
  P       35                -0.24
  P       36                -0.24
  P       37                -0.24
  P       38                -0.24
  P       39                -0.24
  P       40                -0.24
  P       41                -0.24
  P       42                -0.24
  P       43                -0.24
  P       44                -0.24
  P       45                -0.24
  P       46                -0.24
  P       47                -0.24
  P       48                -0.24
  In       1                 0.25
  In       2                 0.24
  In       3                 0.25
  In       4                 0.24
  In       5                 0.23
  In       6                 0.23
  In       7                 0.24
  In       8                 0.24
  In       9                 0.24
  In      10                 0.24
  In      11                 0.24
  In      12                 0.23
  In      13                 0.24
  In      14                 0.24
  In      15                 0.24
  In      16                 0.24
  In      17                 0.23
  In      18                 0.24
  In      19                 0.24
  In      20                 0.24
  In      21                 0.24
  In      22                 0.24
  In      23                 0.24
  In      24                 0.24
  In      25                 0.23
  In      26                 0.25
  In      27                 0.24
  In      28                 0.24
  In      29                 0.24
  In      30                 0.25
  In      31                 0.24
  In      32                 0.24
  In      33                 0.24
  In      34                 0.24
  In      35                 0.24
  In      36                 0.24
  In      37                 0.24
  In      38                 0.24
  In      39                 0.23
  In      40                 0.23
  In      41                 0.24
  In      42                 0.24
  In      43                 0.24
  In      44                 0.24
  In      45                 0.24
  In      46                 0.24
  In      47                 0.24
  In      48                 0.24
======================================

 
 A BibTeX formatted list of references used in this run has been written to 
 30deg_Singlepoints_6.bib
 
Initialisation time =     30.44 s
Calculation time    =   5903.17 s
Finalisation time   =     79.97 s
Total time          =   6013.58 s
Peak Memory Use     = 8567708 kB
 
Overall parallel efficiency rating: Terrible (32%)
 
Data was distributed by:-
G-vector (6-way); efficiency rating: Poor (35%)
k-point (20-way); efficiency rating: Good (79%)
