 +-------------------------------------------------+
 |                                                 |
 |      CCC   AA    SSS  TTTTT  EEEEE  PPPP        |
 |     C     A  A  S       T    E      P   P       |
 |     C     AAAA   SS     T    EEE    PPPP        |
 |     C     A  A     S    T    E      P           |
 |      CCC  A  A  SSS     T    EEEEE  P           |
 |                                                 |
 +-------------------------------------------------+
 |                                                 |
 | Welcome to Academic Release CASTEP version 24.1 |
 | Ab Initio Total Energy Program                  |
 |                                                 |
 | Authors:                                        |
 | M. Segall, M. Probert, C. Pickard, P. Hasnip,   |
 | S. Clark, K. Refson, J. R. Yates,               |
 | A. Bartok-Partay, M. Payne                      |
 |                                                 |
 | Contributors:                                   |
 | P. Lindan, P. Haynes, J. White, V. Milman,      |
 | N. Govind, M. Gibson, P. Tulip, V. Cocula,      |
 | B. Montanari, D. Quigley, M. Glover,            |
 | L. Bernasconi, A. Perlov, M. Plummer,           |
 | E. McNellis, J. Meyer, J. Gale, D. Jochym       |
 | J. Aarons, B. Walker, R. Gillen, D. Jones       |
 | T. Green, I. J. Bush, C. J. Armstrong,          |
 | E. J. Higgins, E. L. Brown, M. S. McFly,        |
 | J. Wilkins, B-C. Shih, P. J. P. Byrne,          |
 | R. J. Maurer, J. C. Womack, J. Dziedzic,        |
 | L. LeBlanc, T. K. Stenczel, J. Kermode,         |
 | S. Sturniolo, B. Shi, B. Durham, M. Evans,      |
 | M. J. Smith, A. Tamerus, Z. Hawkhead,           |
 | V. Ravindran, T. Hollins, S. A. Joyce,          |
 | R. T. Strong, A. M. Reilly, S. J. Donaldson     |
 |                                                 |
 | Copyright (c) 2000 - 2023                       |
 |                                                 |
 |     Distributed under license from Cambridge    |
 |     Enterprise for academic use only.           |
 |                                                 |
 | Please cite                                     |
 |                                                 |
 |     "First principles methods using CASTEP"     |
 |                                                 |
 |         Zeitschrift fuer Kristallographie       |
 |           220(5-6) pp. 567-570 (2005)           |
 |                                                 |
 | S. J. Clark, M. D. Segall, C. J. Pickard,       |
 | P. J. Hasnip, M. J. Probert, K. Refson,         |
 | M. C. Payne                                     |
 |                                                 |
 |       in all publications arising from          |
 |              your use of CASTEP                 |
 |                                                 |
 +-------------------------------------------------+
 |                                                 |
 |              http://www.castep.org              |
 |                                                 |
 +-------------------------------------------------+



 Compiled for  GNU 11.2.0 on 04-04-2024 18:39:17
 from code version 6355fd106 Castep241_branch Thu Mar 7 17:56:19 2024 +0000
 Compiler: GNU Fortran 11.2.0; Optimisation: FAST
 Comms   : MPI VERSION : CRAY MPICH version 8.1.23.14 (ANL base 3.4a2)
 MATHLIBS: default (LAPACK version 3.10.1)
 FFT Lib : fftw3 version commercial-fftw-3.3.10-sse2-avx-avx2-avx2_128
 Fundamental constants values: CODATA 2018

 Run started: Sun, 19 Jan 2025 02:31:18 +0000

 Atomic calculation performed for P: 1s2 2s2 2p6 3s2 3p3

 Converged in 47 iterations to an ae energy of -9309.074 eV

   ============================================================                
   | Pseudopotential Report - Date of generation 19-01-2025   |                
   ------------------------------------------------------------                
   | Element: P Ionic charge:  5.00 Level of theory: RSCAN    |                
   | Atomic Solver: Koelling-Harmon                           |                
   |                                                          |                
   |               Reference Electronic Structure             |                
   |         Orbital         Occupation         Energy        |                
   |            3s              2.000           -0.535        |                
   |            3p              3.000           -0.209        |                
   |                                                          |                
   |                 Pseudopotential Definition               |                
   |        Beta     l      e      Rc     scheme   norm       |                
   |          1      0   -0.535   1.807     qc      0         |                
   |          2      0    0.250   1.807     qc      0         |                
   |          3      1   -0.209   1.807     qc      0         |                
   |          4      1    0.250   1.807     qc      0         |                
   |          5      2    0.000   1.807     qc      0         |                
   |          6      2    0.250   1.807     qc      0         |                
   |         loc     3    0.000   1.807     pn      0         |                
   |                                                          |                
   | Augmentation charge Rinner = 1.263                       |                
   | Partial core correction Rc = 1.263                       |                
   ------------------------------------------------------------                
   | "3|1.8|4|4|5|30:31:32"                                   |                
   ------------------------------------------------------------                
   |      Author: Chris J. Pickard, Cambridge University      |                
   ============================================================                
 Warning: otfg_output_psp cannot write out meta-GGA pseudopotentials presently.

 Atomic calculation performed for In:
 1s2 2s2 2p6 3s2 3p6 3d10 4s2 4p6 4d10 5s2 5p1

 Converged in 84 iterations to an ae energy of -160093.328 eV

   ============================================================                
   | Pseudopotential Report - Date of generation 19-01-2025   |                
   ------------------------------------------------------------                
   | Element: In Ionic charge: 13.00 Level of theory: RSCAN   |                
   | Atomic Solver: Koelling-Harmon                           |                
   |                                                          |                
   |               Reference Electronic Structure             |                
   |         Orbital         Occupation         Energy        |                
   |            4d             10.000           -0.711        |                
   |            5s              2.000           -0.313        |                
   |            5p              1.000           -0.095        |                
   |                                                          |                
   |                 Pseudopotential Definition               |                
   |        Beta     l      e      Rc     scheme   norm       |                
   |          1      0   -0.313   2.501     qc      0         |                
   |          2      0    0.250   2.501     qc      0         |                
   |          3      1   -0.095   2.501     qc      0         |                
   |          4      1    0.250   2.501     qc      0         |                
   |          5      2   -0.711   2.207     qc      0         |                
   |          6      2    0.250   2.207     qc      0         |                
   |         loc     3    0.000   2.501     pn      0         |                
   |                                                          |                
   | Augmentation charge Rinner = 1.504                       |                
   | Partial core correction Rc = 1.504                       |                
   ------------------------------------------------------------                
   | "3|2.5|2.5|1.5|7|8|9|50:51:42U2.2U2.2"                   |                
   ------------------------------------------------------------                
   |      Author: Chris J. Pickard, Cambridge University      |                
   ============================================================                
 Warning: otfg_output_psp cannot write out meta-GGA pseudopotentials presently.

 Pseudo atomic calculation performed for P 3s2 3p3

 Converged in 23 iterations to a total energy of -208.0292 eV

 Pseudo atomic calculation performed for In 4d10 5s2 5p1

 Converged in 42 iterations to a total energy of -1747.4501 eV
 Calculation parallelised over 80 processes.
 Data is distributed by G-vector(2-way) and k-point(40-way)
 Each process may use up to 16 threads.

 ************************************ Title ************************************
 

 ***************************** General Parameters ******************************
  
 output verbosity                               : normal  (1)
 write checkpoint data to                       : StackingFaultStructs_001_100_8.check
 type of calculation                            : geometry optimization
 stress calculation                             : off
 density difference calculation                 : off
 electron localisation func (ELF) calculation   : off
 Hirshfeld analysis                             : on
 polarisation (Berry phase) analysis            : off
 molecular orbital projected DOS                : off
 deltaSCF calculation                           : off
 unlimited duration calculation
 timing information                             : on
 memory usage estimate                          : on
 write extra output files                       : on
 write final potential to formatted file        : off
 write final density to formatted file          : off
 write BibTeX reference list                    : on
 write OTFG pseudopotential files               : on
 write electrostatic potential file             : on
 write bands file                               : on
 checkpoint writing                             : off
  
 output         length unit                     : A
 output           mass unit                     : amu
 output           time unit                     : ps
 output         charge unit                     : e
 output           spin unit                     : hbar/2
 output         energy unit                     : eV
 output          force unit                     : eV/A
 output       velocity unit                     : A/ps
 output       pressure unit                     : GPa
 output     inv_length unit                     : 1/A
 output      frequency unit                     : cm-1
 output force constant unit                     : eV/A**2
 output         volume unit                     : A**3
 output   IR intensity unit                     : (D/A)**2/amu
 output         dipole unit                     : D
 output         efield unit                     : eV/A/e
 output        entropy unit                     : J/mol/K
 output    efield chi2 unit                     : pm/V
  
 wavefunctions paging                           : none
 random number generator seed                   :   23118554
 data distribution                              : optimal for this architecture
 optimization strategy                          : balance speed and memory

 *********************** Exchange-Correlation Parameters ***********************
  
 using functional                               : RSCAN
 relativistic treatment                         : Koelling-Harmon
 DFT+D: Semi-empirical dispersion correction    : off

 ************************* Pseudopotential Parameters **************************
  
 pseudopotential representation                 : reciprocal space
 <beta|phi> representation                      : reciprocal space
 spin-orbit coupling                            : off

 **************************** Basis Set Parameters *****************************
  
 plane wave basis set cut-off                   :   900.0000   eV
 size of standard grid                          :     2.0000
 size of   fine   gmax                          :    30.7390   1/A
 finite basis set correction                    : none

 **************************** Electronic Parameters ****************************
  
 number of  electrons                           :  216.0    
 net charge of system                           :  0.000    
 treating system as non-spin-polarized
 number of bands                                :        130

 ********************* Electronic Minimization Parameters **********************
  
 Method: Treating system as metallic with density mixing treatment of electrons,
         and number of  SD  steps               :          1
         and number of  CG  steps               :          4
  
 total energy / atom convergence tol.           : 0.1000E-07   eV
 eigen-energy convergence tolerance             : 0.2222E-08   eV
 max force / atom convergence tol.              : ignored
 convergence tolerance window                   :          3   cycles
 max. number of SCF cycles                      :         50
 number of fixed-spin iterations                :         10
 smearing scheme                                : Gaussian
 smearing width                                 : 0.2000       eV
 Fermi energy convergence tolerance             : 0.2721E-13   eV
 periodic dipole correction                     : NONE

 ************************** Density Mixing Parameters **************************
  
 density-mixing scheme                          : Pulay
 max. length of mixing history                  :         15
 charge density mixing amplitude                : 0.5000    
 cut-off energy for mixing                      :  900.0       eV

 *********************** Population Analysis Parameters ************************
  
 Population analysis with cutoff                :  3.000       A
 Population analysis output                     : summary and pdos components

 ********************** Geometry Optimization Parameters ***********************
  
 optimization method                            : LBFGS
 max. no. of LBFGS updates                      : unbounded
 preconditioned LBFGS is activated
 preconditioner type                            : EXP
     stabilization constant                     :     0.1000
     parameter A                                :     3.0000
     nearest neighbor distance                  : automatic
     cut-off distance                           : automatic
     parameter mu                               : automatic
 variable cell method                           : fixed basis quality
 max. number of steps                           :         30
 estimated bulk modulus                         :  500.0       GPa
 estimated <frequency>                          :  1668.       cm-1
 geom line minimiser                            : on
 with line minimiser tolerance                  :     0.4000
 total energy convergence tolerance             : 0.2000E-04   eV/atom
        max ionic |force| tolerance             : 0.1000E-02   eV/A
 max ionic |displacement| tolerance             : 0.1000E-02   A
   max |stress component| tolerance             : 0.1000       GPa
 convergence tolerance window                   :          2   steps
 backup results every                           :          5   steps
 write geom trajectory file                     : on

 *******************************************************************************
  

                           -------------------------------
                                      Unit Cell
                           -------------------------------
        Real Lattice(A)                      Reciprocal Lattice(1/A)
     5.9012740     0.0000000     0.0000000        1.064716756   0.000000000   0.000000000
     0.0000000     5.9012740     0.0000000        0.000000000   1.064716756  -0.354905605
     0.0000000     5.9012740    17.7038210        0.000000000   0.000000000   0.354905605

                       Lattice parameters(A)       Cell Angles
                    a =      5.901274          alpha =   71.565050
                    b =      5.901274          beta  =   90.000000
                    c =     18.661466          gamma =   90.000000

                       Current cell volume =           616.536183       A**3
                                   density =             2.837629   AMU/A**3
                                           =             4.711994     g/cm^3

                           -------------------------------
                                     Cell Contents
                           -------------------------------
                         Total number of ions in cell =   24
                      Total number of species in cell =    2
                        Max number of any one species =   12

            xxxxxxxxxxxxxxxxxxxxxxxxxxxxxxxxxxxxxxxxxxxxxxxxxxxxxxxxxxxx
            x  Element    Atom        Fractional coordinates of atoms  x
            x            Number           u          v          w      x
            x----------------------------------------------------------x
            x  P            1         0.250000  -0.166667   0.916667   x 
            x  P            2         0.250000  -0.500000   0.750000   x 
            x  P            3         0.750000  -0.000000   0.750000   x 
            x  P            4         0.750000  -0.666667   0.916667   x 
            x  P            5         0.750000  -0.000000   0.250000   x 
            x  P            6         0.750000   0.333333   0.416667   x 
            x  P            7         0.750000  -0.333333   0.583333   x 
            x  P            8         0.250000   0.500000   0.250000   x 
            x  P            9         0.250000   0.166667   0.083333   x 
            x  P           10         0.750000   0.666667   0.083333   x 
            x  P           11         0.250000  -0.166667   0.416667   x 
            x  P           12         0.250000   0.166667   0.583333   x 
            x  In           1         0.000000  -0.333333   0.833333   x 
            x  In           2         0.500000  -0.166667   0.666667   x 
            x  In           3         0.500000  -0.833333   0.833333   x 
            x  In           4         0.500000  -0.166667   0.166667   x 
            x  In           5         0.500000   0.500000   0.000000   x 
            x  In           6         0.000000   0.000000   0.000000   x 
            x  In           7         0.000000   0.333333   0.166667   x 
            x  In           8         0.000000  -0.666667   0.666667   x 
            x  In           9         0.500000  -0.500000   0.500000   x 
            x  In          10         0.500000   0.166667   0.333333   x 
            x  In          11         0.000000  -0.333333   0.333333   x 
            x  In          12         0.000000   0.000000   0.500000   x 
            xxxxxxxxxxxxxxxxxxxxxxxxxxxxxxxxxxxxxxxxxxxxxxxxxxxxxxxxxxxx


                         No user defined ionic velocities

                           -------------------------------
                                   Details of Species
                           -------------------------------

                               Mass of species in AMU
                                    P   30.9737600
                                    In  114.8180000

                          Electric Quadrupole Moment (Barn)
                                    P    1.0000000 No Isotope Defined
                                    In    0.7700000 Isotope115

                          Files used for pseudopotentials:
                                    P 3|1.8|4|4|5|30:31:32
                                    In 3|2.5|2.5|1.5|7|8|9|50:51:42U2.2U2.2

                           -------------------------------
                              k-Points For BZ Sampling
                           -------------------------------
                       MP grid size for SCF calculation is  6  6  2
                            with an offset of   0.083  0.083  0.250
                       Number of kpoints used =            40

                           -------------------------------
                               Symmetry and Constraints
                           -------------------------------

                      Cell is a supercell containing 12 primitive cells
                      Maximum deviation from symmetry =  0.00000         ANG

                      Number of symmetry operations   =           1
                      Number of ionic constraints     =          48
                      Point group of crystal =     1: C1, 1, 1
                      Space group of crystal =   216: F-43m, F -4 2 3

             Set iprint > 1 for details on symmetry rotations/translations

                         Centre of mass is NOT constrained
             Set iprint > 1 for details of linear ionic constraints

                         Number of cell constraints= 6
                         Cell constraints are:  0 0 0 0 0 0

                         External pressure/stress (GPa)
                          0.00000   0.00000   0.00000
                                    0.00000   0.00000
                                              0.00000
 
+---------------- MEMORY AND SCRATCH DISK ESTIMATES PER PROCESS --------------+
|                                                     Memory          Disk    |
| Baseline code, static data and system overhead      386.0 MB         0.0 MB |
| BLAS internal memory storage                          0.0 MB         0.0 MB |
| Model and support data                             2237.1 MB         0.0 MB |
| Electronic energy minimisation requirements         261.8 MB         0.0 MB |
| Force calculation requirements                       50.1 MB         0.0 MB |
|                                               ----------------------------- |
| Approx. total storage required per process         2884.8 MB         0.0 MB |
|                                                                             |
| Requirements will fluctuate during execution and may exceed these estimates |
+-----------------------------------------------------------------------------+
Calculating approximate eigenstates for fixed initial Hamiltonian
Cut-off for approx. calculation is   89.988 eV
Improving approx. states at cut-off of  450.000 eV
Resetting cut-off to  900.000 eV
Calculating total energy with cut-off of  900.000 eV.
------------------------------------------------------------------------ <-- SCF
SCF loop      Energy           Fermi           Energy gain       Timer   <-- SCF
                               energy          per atom          (sec)   <-- SCF
------------------------------------------------------------------------ <-- SCF
Initial  -2.36442621E+004  0.00000000E+000                        67.63  <-- SCF
      1  -2.35522205E+004  2.56664021E+000  -3.83506830E+000     107.89  <-- SCF
      2  -2.35522882E+004  2.56639727E+000   2.82259507E-003     143.20  <-- SCF
      3  -2.35771523E+004  2.87066599E+000   1.03600474E+000     179.68  <-- SCF
      4  -2.35816183E+004  2.94828384E+000   1.86083565E-001     222.91  <-- SCF
      5  -2.35793817E+004  3.30827119E+000  -9.31910036E-002     258.07  <-- SCF
      6  -2.35792664E+004  3.36368649E+000  -4.80745979E-003     296.15  <-- SCF
      7  -2.35792274E+004  3.40922765E+000  -1.62322251E-003     333.95  <-- SCF
      8  -2.35797384E+004  3.45368392E+000   2.12912332E-002     373.93  <-- SCF
      9  -2.35798113E+004  3.39624150E+000   3.03789137E-003     413.42  <-- SCF
     10  -2.35798093E+004  3.41517955E+000  -8.35339860E-005     452.02  <-- SCF
     11  -2.35798089E+004  3.41792221E+000  -1.74212645E-005     491.34  <-- SCF
     12  -2.35798093E+004  3.41557745E+000   1.80619144E-005     530.55  <-- SCF
     13  -2.35798094E+004  3.41530541E+000   1.68920463E-006     567.92  <-- SCF
     14  -2.35798094E+004  3.41514126E+000   1.00534403E-007     602.92  <-- SCF
     15  -2.35798094E+004  3.41519235E+000   1.30420027E-009     628.92  <-- SCF
     16  -2.35798094E+004  3.41521598E+000   4.96905717E-010     656.47  <-- SCF
------------------------------------------------------------------------ <-- SCF
 
Final energy, E             =  -23579.80934851     eV
Final free energy (E-TS)    =  -23579.80935982     eV
(energies not corrected for finite basis set)
 
NB est. 0K energy (E-0.5TS)      =  -23579.80935416     eV
 
 
+---------------- MEMORY AND SCRATCH DISK ESTIMATES PER PROCESS --------------+
|                                                     Memory          Disk    |
| Model and support data                             1325.4 MB         0.0 MB |
| Electronic energy minimisation requirements         261.8 MB         0.0 MB |
| Geometry minimisation requirements                  305.4 MB         0.0 MB |
|                                               ----------------------------- |
| Approx. total storage required per process         1892.6 MB         0.0 MB |
|                                                                             |
| Requirements will fluctuate during execution and may exceed these estimates |
+-----------------------------------------------------------------------------+
 

 ******************************** Constrained Forces ********************************
 *                                                                                  *
 *                           Cartesian components (eV/A)                            *
 * -------------------------------------------------------------------------------- *
 *                         x                    y                    z              *
 *                                                                                  *
 * P               1      0.00000(cons'd)      0.00000(cons'd)      0.00001         *
 * P               2      0.00000(cons'd)      0.00000(cons'd)     -0.00001         *
 * P               3      0.00000(cons'd)     -0.00000(cons'd)     -0.00001         *
 * P               4      0.00000(cons'd)     -0.00000(cons'd)      0.00001         *
 * P               5      0.00000(cons'd)     -0.00000(cons'd)      0.00001         *
 * P               6      0.00000(cons'd)      0.00000(cons'd)      0.00000         *
 * P               7      0.00000(cons'd)      0.00000(cons'd)     -0.00001         *
 * P               8      0.00000(cons'd)     -0.00000(cons'd)      0.00001         *
 * P               9      0.00000(cons'd)      0.00000(cons'd)      0.00001         *
 * P              10      0.00000(cons'd)      0.00000(cons'd)      0.00001         *
 * P              11      0.00000(cons'd)     -0.00000(cons'd)      0.00000         *
 * P              12      0.00000(cons'd)      0.00000(cons'd)     -0.00001         *
 * In              1      0.00000(cons'd)      0.00000(cons'd)      0.00000         *
 * In              2      0.00000(cons'd)      0.00000(cons'd)      0.00001         *
 * In              3     -0.00000(cons'd)      0.00000(cons'd)      0.00000         *
 * In              4     -0.00000(cons'd)      0.00000(cons'd)     -0.00001         *
 * In              5     -0.00000(cons'd)      0.00000(cons'd)     -0.00001         *
 * In              6     -0.00000(cons'd)      0.00000(cons'd)     -0.00001         *
 * In              7      0.00000(cons'd)      0.00000(cons'd)     -0.00001         *
 * In              8      0.00000(cons'd)      0.00000(cons'd)      0.00001         *
 * In              9      0.00000(cons'd)      0.00000(cons'd)      0.00001         *
 * In             10      0.00000(cons'd)      0.00000(cons'd)     -0.00001         *
 * In             11      0.00000(cons'd)      0.00000(cons'd)     -0.00001         *
 * In             12      0.00000(cons'd)      0.00000(cons'd)      0.00001         *
 *                                                                                  *
 ************************************************************************************
 EXP precond LBFGS => estimated nearest neighbor distance :  2.555       A
 EXP precond LBFGS => estimated cutoff distance :  5.111       A

 ************************************** Forces **************************************
 *                                                                                  *
 *                           Cartesian components (eV/A)                            *
 * -------------------------------------------------------------------------------- *
 *                         x                    y                    z              *
 *                                                                                  *
 * P               1     -0.00035(cons'd)      0.00000(cons'd)      0.00001         *
 * P               2     -0.00035(cons'd)      0.00000(cons'd)     -0.00001         *
 * P               3     -0.00035(cons'd)      0.00000(cons'd)     -0.00001         *
 * P               4     -0.00035(cons'd)      0.00000(cons'd)      0.00001         *
 * P               5     -0.00035(cons'd)      0.00000(cons'd)      0.00001         *
 * P               6     -0.00035(cons'd)      0.00000(cons'd)      0.00000         *
 * P               7     -0.00035(cons'd)      0.00000(cons'd)     -0.00001         *
 * P               8     -0.00035(cons'd)      0.00000(cons'd)      0.00001         *
 * P               9     -0.00035(cons'd)      0.00000(cons'd)      0.00001         *
 * P              10     -0.00035(cons'd)      0.00000(cons'd)      0.00001         *
 * P              11     -0.00035(cons'd)      0.00000(cons'd)      0.00000         *
 * P              12     -0.00035(cons'd)      0.00000(cons'd)     -0.00001         *
 * In              1      0.00035(cons'd)     -0.00000(cons'd)      0.00000         *
 * In              2      0.00035(cons'd)     -0.00000(cons'd)      0.00001         *
 * In              3      0.00035(cons'd)     -0.00000(cons'd)      0.00000         *
 * In              4      0.00035(cons'd)     -0.00000(cons'd)     -0.00001         *
 * In              5      0.00035(cons'd)     -0.00000(cons'd)     -0.00001         *
 * In              6      0.00035(cons'd)     -0.00000(cons'd)     -0.00001         *
 * In              7      0.00035(cons'd)     -0.00000(cons'd)     -0.00001         *
 * In              8      0.00035(cons'd)     -0.00000(cons'd)      0.00001         *
 * In              9      0.00035(cons'd)     -0.00000(cons'd)      0.00001         *
 * In             10      0.00035(cons'd)     -0.00000(cons'd)     -0.00001         *
 * In             11      0.00035(cons'd)     -0.00000(cons'd)     -0.00001         *
 * In             12      0.00035(cons'd)     -0.00000(cons'd)      0.00001         *
 *                                                                                  *
 ************************************************************************************
 doing test perturbation to get energy scale for EXP preconditioner

                           -------------------------------
                                     Cell Contents
                           -------------------------------

            xxxxxxxxxxxxxxxxxxxxxxxxxxxxxxxxxxxxxxxxxxxxxxxxxxxxxxxxxxxxxxxxx
            x  Element         Atom        Fractional coordinates of atoms  x
            x                 Number           u          v          w      x
            x---------------------------------------------------------------x
            x  P                 1         0.251417   0.835762   0.917881   x
            x  P                 2         0.251417   0.501783   0.751054   x
            x  P                 3         0.753644   1.002590   0.751054   x
            x  P                 4         0.753644   0.334955   0.917881   x
            x  P                 5         0.753644   1.002448   0.250389   x
            x  P                 6         0.753644   0.334499   0.417300   x
            x  P                 7         0.753644   0.668645   0.584191   x
            x  P                 8         0.251417   0.501411   0.250389   x
            x  P                 9         0.251417   0.167152   0.083464   x
            x  P                10         0.753644   0.668335   0.083464   x
            x  P                11         0.251417   0.835536   0.417300   x
            x  P                12         0.251417   0.167608   0.584191   x
            x  In                1         0.000000   0.668801   0.834472   x
            x  In                2         0.502678   0.835647   0.667626   x
            x  In                3         0.502678   0.167870   0.834472   x
            x  In                4         0.502678   0.835414   0.166928   x
            x  In                5         0.502678   0.501220   0.000000   x
            x  In                6         0.000000   0.000000   0.000000   x
            x  In                7         0.000000   0.334293   0.166928   x
            x  In                8         0.000000   0.334716   0.667626   x
            x  In                9         0.502678   0.501593   0.500749   x
            x  In               10         0.502678   0.167374   0.333847   x
            x  In               11         0.000000   0.668495   0.333847   x
            x  In               12         0.000000   0.000472   0.500749   x
            xxxxxxxxxxxxxxxxxxxxxxxxxxxxxxxxxxxxxxxxxxxxxxxxxxxxxxxxxxxxxxxxx


------------------------------------------------------------------------ <-- SCF
SCF loop      Energy           Fermi           Energy gain       Timer   <-- SCF
                               energy          per atom          (sec)   <-- SCF
------------------------------------------------------------------------ <-- SCF
Initial  -2.35790233E+004  0.00000000E+000                       705.03  <-- SCF
      1  -2.35796906E+004  3.41599180E+000   2.78039743E-002     741.41  <-- SCF
      2  -2.35797912E+004  3.41587873E+000   4.19255159E-003     782.36  <-- SCF
      3  -2.35797920E+004  3.41592134E+000   3.32709523E-005     820.41  <-- SCF
      4  -2.35797927E+004  3.41595216E+000   3.04976882E-005     860.83  <-- SCF
      5  -2.35797928E+004  3.41593961E+000   3.95350460E-006     906.24  <-- SCF
      6  -2.35797928E+004  3.41593984E+000   6.22569242E-007     946.02  <-- SCF
      7  -2.35797928E+004  3.41594688E+000  -7.25290287E-008     982.32  <-- SCF
      8  -2.35797928E+004  3.41595089E+000  -7.88053798E-008    1015.11  <-- SCF
      9  -2.35797928E+004  3.41595236E+000  -1.79758705E-008    1047.75  <-- SCF
     10  -2.35797928E+004  3.41595336E+000   2.13585674E-010    1078.88  <-- SCF
     11  -2.35797928E+004  3.41595347E+000   4.01520443E-010    1107.65  <-- SCF
------------------------------------------------------------------------ <-- SCF
 
Final energy, E             =  -23579.79279900     eV
Final free energy (E-TS)    =  -23579.79281067     eV
(energies not corrected for finite basis set)
 
NB est. 0K energy (E-0.5TS)      =  -23579.79280483     eV
 

 ************************************** Forces **************************************
 *                                                                                  *
 *                           Cartesian components (eV/A)                            *
 * -------------------------------------------------------------------------------- *
 *                         x                    y                    z              *
 *                                                                                  *
 * P               1      0.06801(cons'd)     -0.11114(cons'd)     -0.12998         *
 * P               2      0.02463(cons'd)     -0.00087(cons'd)     -0.00010         *
 * P               3     -0.13485(cons'd)     -0.05345(cons'd)      0.00372         *
 * P               4     -0.08686(cons'd)     -0.04966(cons'd)     -0.12272         *
 * P               5     -0.13207(cons'd)     -0.06508(cons'd)      0.00673         *
 * P               6     -0.12732(cons'd)      0.01044(cons'd)      0.00234         *
 * P               7     -0.14649(cons'd)     -0.03582(cons'd)      0.02008         *
 * P               8      0.02828(cons'd)      0.00386(cons'd)      0.00218         *
 * P               9     -0.00148(cons'd)      0.04876(cons'd)     -0.00545         *
 * P              10     -0.15098(cons'd)     -0.03050(cons'd)      0.03724         *
 * P              11      0.02503(cons'd)     -0.06351(cons'd)      0.00101         *
 * P              12      0.00247(cons'd)      0.03373(cons'd)     -0.01665         *
 * In              1      0.15944(cons'd)     -0.01027(cons'd)     -0.02057         *
 * In              2     -0.03925(cons'd)     -0.02264(cons'd)      0.01502         *
 * In              3     -0.05162(cons'd)      0.05857(cons'd)     -0.02082         *
 * In              4     -0.03419(cons'd)     -0.02877(cons'd)      0.01831         *
 * In              5     -0.09044(cons'd)      0.03982(cons'd)      0.14244         *
 * In              6      0.11573(cons'd)      0.10732(cons'd)      0.13474         *
 * In              7      0.18514(cons'd)      0.03523(cons'd)     -0.02821         *
 * In              8      0.17917(cons'd)      0.02942(cons'd)     -0.02359         *
 * In              9     -0.05096(cons'd)     -0.00724(cons'd)     -0.00363         *
 * In             10     -0.05401(cons'd)      0.06650(cons'd)     -0.00332         *
 * In             11      0.15706(cons'd)     -0.01387(cons'd)     -0.00310         *
 * In             12      0.15556(cons'd)      0.05919(cons'd)     -0.00566         *
 *                                                                                  *
 ************************************************************************************
 EXP precond LBFGS => estimated parameter mu :  1.981       eV/A**2
 LBFGS: finished iteration     0 with enthalpy= -2.35798094E+004 eV
  
 +-----------+-----------------+-----------------+------------+-----+ <-- LBFGS
 | Parameter |      value      |    tolerance    |    units   | OK? | <-- LBFGS
 +-----------+-----------------+-----------------+------------+-----+ <-- LBFGS
 |  dE/ion   |   0.000000E+000 |   2.000000E-005 |         eV | No  | <-- LBFGS
 |  |F|max   |   2.075221E-001 |   1.000000E-003 |       eV/A | No  | <-- LBFGS
 |  |dR|max  |   1.880015E-015 |   1.000000E-003 |          A | No  | <-- LBFGS
 +-----------+-----------------+-----------------+------------+-----+ <-- LBFGS
  

================================================================================
 Starting LBFGS iteration          1 ...
================================================================================
  
 +------------+-------------+-------------+-----------------+ <-- min LBFGS
 |    Step    |   lambda    |   F.delta'  |    enthalpy     | <-- min LBFGS
 +------------+-------------+-------------+-----------------+ <-- min LBFGS
 |  previous  |    0.000000 |    0.000013 |   -23579.809360 | <-- min LBFGS
 +------------+-------------+-------------+-----------------+ <-- min LBFGS
  

--------------------------------------------------------------------------------
 LBFGS: starting iteration         1 with trial guess (lambda=  1.000000)
--------------------------------------------------------------------------------

                           -------------------------------
                                     Cell Contents
                           -------------------------------

            xxxxxxxxxxxxxxxxxxxxxxxxxxxxxxxxxxxxxxxxxxxxxxxxxxxxxxxxxxxxxxxxx
            x  Element         Atom        Fractional coordinates of atoms  x
            x                 Number           u          v          w      x
            x---------------------------------------------------------------x
            x  P                 1         0.250000  -0.166667   0.916667   x
            x  P                 2         0.250000  -0.500000   0.750000   x
            x  P                 3         0.750000  -0.000000   0.750000   x
            x  P                 4         0.750000  -0.666667   0.916667   x
            x  P                 5         0.750000  -0.000000   0.250000   x
            x  P                 6         0.750000   0.333333   0.416667   x
            x  P                 7         0.750000  -0.333333   0.583333   x
            x  P                 8         0.250000   0.500000   0.250000   x
            x  P                 9         0.250000   0.166667   0.083333   x
            x  P                10         0.750000   0.666667   0.083333   x
            x  P                11         0.250000  -0.166667   0.416667   x
            x  P                12         0.250000   0.166667   0.583333   x
            x  In                1         0.000000  -0.333333   0.833333   x
            x  In                2         0.500000  -0.166667   0.666667   x
            x  In                3         0.500000  -0.833333   0.833333   x
            x  In                4         0.500000  -0.166667   0.166667   x
            x  In                5         0.500000   0.500000  -0.000000   x
            x  In                6        -0.000000   0.000000  -0.000000   x
            x  In                7         0.000000   0.333333   0.166667   x
            x  In                8         0.000000  -0.666667   0.666667   x
            x  In                9         0.500000  -0.500000   0.500000   x
            x  In               10         0.500000   0.166667   0.333333   x
            x  In               11         0.000000  -0.333333   0.333333   x
            x  In               12         0.000000  -0.000000   0.500000   x
            xxxxxxxxxxxxxxxxxxxxxxxxxxxxxxxxxxxxxxxxxxxxxxxxxxxxxxxxxxxxxxxxx


------------------------------------------------------------------------ <-- SCF
SCF loop      Energy           Fermi           Energy gain       Timer   <-- SCF
                               energy          per atom          (sec)   <-- SCF
------------------------------------------------------------------------ <-- SCF
Initial  -2.35789823E+004  0.00000000E+000                      1135.61  <-- SCF
      1  -2.35797076E+004  3.41515608E+000   3.02195690E-002    1172.56  <-- SCF
      2  -2.35798076E+004  3.41506081E+000   4.16703825E-003    1215.30  <-- SCF
      3  -2.35798085E+004  3.41511653E+000   3.72164811E-005    1253.33  <-- SCF
      4  -2.35798093E+004  3.41521933E+000   3.26783261E-005    1293.20  <-- SCF
      5  -2.35798093E+004  3.41521552E+000   3.47549689E-006    1336.51  <-- SCF
      6  -2.35798094E+004  3.41521691E+000   6.71733905E-007    1378.91  <-- SCF
      7  -2.35798094E+004  3.41522276E+000  -6.45972276E-008    1412.59  <-- SCF
      8  -2.35798094E+004  3.41522467E+000  -7.83047360E-008    1446.60  <-- SCF
      9  -2.35798094E+004  3.41522379E+000  -1.40396811E-008    1480.20  <-- SCF
     10  -2.35798094E+004  3.41522264E+000  -2.46480704E-009    1512.01  <-- SCF
     11  -2.35798094E+004  3.41522260E+000   4.30522722E-010    1539.15  <-- SCF
------------------------------------------------------------------------ <-- SCF
 
Final energy, E             =  -23579.80934852     eV
Final free energy (E-TS)    =  -23579.80935982     eV
(energies not corrected for finite basis set)
 
NB est. 0K energy (E-0.5TS)      =  -23579.80935417     eV
 

 ******************************** Constrained Forces ********************************
 *                                                                                  *
 *                           Cartesian components (eV/A)                            *
 * -------------------------------------------------------------------------------- *
 *                         x                    y                    z              *
 *                                                                                  *
 * P               1      0.00000(cons'd)      0.00000(cons'd)     -0.00005         *
 * P               2      0.00000(cons'd)      0.00000(cons'd)      0.00002         *
 * P               3      0.00000(cons'd)     -0.00000(cons'd)      0.00002         *
 * P               4      0.00000(cons'd)     -0.00000(cons'd)     -0.00005         *
 * P               5      0.00000(cons'd)     -0.00000(cons'd)      0.00003         *
 * P               6      0.00000(cons'd)      0.00000(cons'd)      0.00013         *
 * P               7      0.00000(cons'd)     -0.00000(cons'd)      0.00012         *
 * P               8      0.00000(cons'd)      0.00000(cons'd)      0.00003         *
 * P               9      0.00000(cons'd)     -0.00000(cons'd)     -0.00007         *
 * P              10      0.00000(cons'd)      0.00000(cons'd)     -0.00007         *
 * P              11      0.00000(cons'd)     -0.00000(cons'd)      0.00013         *
 * P              12      0.00000(cons'd)     -0.00000(cons'd)      0.00013         *
 * In              1      0.00000(cons'd)      0.00000(cons'd)     -0.00009         *
 * In              2      0.00000(cons'd)      0.00000(cons'd)     -0.00007         *
 * In              3      0.00000(cons'd)      0.00000(cons'd)     -0.00009         *
 * In              4      0.00000(cons'd)      0.00000(cons'd)     -0.00001         *
 * In              5      0.00000(cons'd)      0.00000(cons'd)      0.00002         *
 * In              6      0.00000(cons'd)     -0.00000(cons'd)      0.00003         *
 * In              7     -0.00000(cons'd)      0.00000(cons'd)     -0.00001         *
 * In              8     -0.00000(cons'd)      0.00000(cons'd)     -0.00007         *
 * In              9      0.00000(cons'd)      0.00000(cons'd)     -0.00002         *
 * In             10      0.00000(cons'd)      0.00000(cons'd)     -0.00001         *
 * In             11      0.00000(cons'd)      0.00000(cons'd)     -0.00001         *
 * In             12      0.00000(cons'd)      0.00000(cons'd)     -0.00003         *
 *                                                                                  *
 ************************************************************************************
  
 +------------+-------------+-------------+-----------------+ <-- min LBFGS
 |    Step    |   lambda    |   F.delta'  |    enthalpy     | <-- min LBFGS
 +------------+-------------+-------------+-----------------+ <-- min LBFGS
 |  previous  |    0.000000 |    0.000013 |   -23579.809360 | <-- min LBFGS
 | trial step |    1.000000 |   -0.000065 |   -23579.809360 | <-- min LBFGS
 +------------+-------------+-------------+-----------------+ <-- min LBFGS
  
 LBFGS: finished iteration     1 with enthalpy= -2.35798094E+004 eV
  
 +-----------+-----------------+-----------------+------------+-----+ <-- LBFGS
 | Parameter |      value      |    tolerance    |    units   | OK? | <-- LBFGS
 +-----------+-----------------+-----------------+------------+-----+ <-- LBFGS
 |  dE/ion   |   2.440058E-010 |   2.000000E-005 |         eV | Yes | <-- LBFGS
 |  |F|max   |   1.326584E-004 |   1.000000E-003 |       eV/A | Yes | <-- LBFGS
 |  |dR|max  |   7.895180E-007 |   1.000000E-003 |          A | Yes | <-- LBFGS
 +-----------+-----------------+-----------------+------------+-----+ <-- LBFGS
  
 Hirshfeld supercell size:           3           3           1
Standard grid dimensions: 180 180 192
Fine grid dimensions:     180 180 192

 LBFGS: Geometry optimization completed successfully.

================================================================================
 LBFGS: Final Configuration:
================================================================================

                           -------------------------------
                                     Cell Contents
                           -------------------------------

            xxxxxxxxxxxxxxxxxxxxxxxxxxxxxxxxxxxxxxxxxxxxxxxxxxxxxxxxxxxxxxxxx
            x  Element         Atom        Fractional coordinates of atoms  x
            x                 Number           u          v          w      x
            x---------------------------------------------------------------x
            x  P                 1         0.250000  -0.166667   0.916667   x
            x  P                 2         0.250000  -0.500000   0.750000   x
            x  P                 3         0.750000  -0.000000   0.750000   x
            x  P                 4         0.750000  -0.666667   0.916667   x
            x  P                 5         0.750000  -0.000000   0.250000   x
            x  P                 6         0.750000   0.333333   0.416667   x
            x  P                 7         0.750000  -0.333333   0.583333   x
            x  P                 8         0.250000   0.500000   0.250000   x
            x  P                 9         0.250000   0.166667   0.083333   x
            x  P                10         0.750000   0.666667   0.083333   x
            x  P                11         0.250000  -0.166667   0.416667   x
            x  P                12         0.250000   0.166667   0.583333   x
            x  In                1         0.000000  -0.333333   0.833333   x
            x  In                2         0.500000  -0.166667   0.666667   x
            x  In                3         0.500000  -0.833333   0.833333   x
            x  In                4         0.500000  -0.166667   0.166667   x
            x  In                5         0.500000   0.500000  -0.000000   x
            x  In                6        -0.000000   0.000000  -0.000000   x
            x  In                7         0.000000   0.333333   0.166667   x
            x  In                8         0.000000  -0.666667   0.666667   x
            x  In                9         0.500000  -0.500000   0.500000   x
            x  In               10         0.500000   0.166667   0.333333   x
            x  In               11         0.000000  -0.333333   0.333333   x
            x  In               12         0.000000  -0.000000   0.500000   x
            xxxxxxxxxxxxxxxxxxxxxxxxxxxxxxxxxxxxxxxxxxxxxxxxxxxxxxxxxxxxxxxxx


 LBFGS: Final Enthalpy     = -2.35798094E+004 eV
 LBFGS: Final <frequency>  unchanged from initial value

 ******************* Unconstrained Forces *******************
 *                                                          *
 *               Cartesian components (eV/A)                *
 * -------------------------------------------------------- *
 *                         x            y            z      *
 *                                                          *
 * P               1     -0.00035      0.00005     -0.00005 *
 * P               2     -0.00034      0.00004      0.00002 *
 * P               3     -0.00031      0.00005      0.00002 *
 * P               4     -0.00032      0.00004     -0.00005 *
 * P               5     -0.00031      0.00005      0.00003 *
 * P               6     -0.00031      0.00003      0.00013 *
 * P               7     -0.00031      0.00004      0.00012 *
 * P               8     -0.00034      0.00003      0.00003 *
 * P               9     -0.00033      0.00003     -0.00007 *
 * P              10     -0.00031      0.00004     -0.00007 *
 * P              11     -0.00034      0.00004      0.00013 *
 * P              12     -0.00033      0.00003      0.00013 *
 * In              1      0.00035     -0.00008     -0.00009 *
 * In              2      0.00029     -0.00006     -0.00007 *
 * In              3      0.00030     -0.00006     -0.00009 *
 * In              4      0.00029     -0.00004     -0.00001 *
 * In              5      0.00030     -0.00003      0.00002 *
 * In              6      0.00036     -0.00001      0.00003 *
 * In              7      0.00035     -0.00002     -0.00001 *
 * In              8      0.00035     -0.00006     -0.00007 *
 * In              9      0.00030     -0.00004     -0.00002 *
 * In             10      0.00030     -0.00002     -0.00001 *
 * In             11      0.00035     -0.00004     -0.00001 *
 * In             12      0.00035     -0.00003     -0.00003 *
 *                                                          *
 ************************************************************

 ******************************** Constrained Forces ********************************
 *                                                                                  *
 *                           Cartesian components (eV/A)                            *
 * -------------------------------------------------------------------------------- *
 *                         x                    y                    z              *
 *                                                                                  *
 * P               1      0.00000(cons'd)      0.00000(cons'd)     -0.00005         *
 * P               2      0.00000(cons'd)     -0.00000(cons'd)      0.00002         *
 * P               3      0.00000(cons'd)     -0.00000(cons'd)      0.00002         *
 * P               4      0.00000(cons'd)      0.00000(cons'd)     -0.00005         *
 * P               5      0.00000(cons'd)     -0.00000(cons'd)      0.00003         *
 * P               6      0.00000(cons'd)     -0.00000(cons'd)      0.00013         *
 * P               7      0.00000(cons'd)      0.00000(cons'd)      0.00012         *
 * P               8      0.00000(cons'd)     -0.00000(cons'd)      0.00003         *
 * P               9      0.00000(cons'd)      0.00000(cons'd)     -0.00007         *
 * P              10      0.00000(cons'd)      0.00000(cons'd)     -0.00007         *
 * P              11      0.00000(cons'd)     -0.00000(cons'd)      0.00013         *
 * P              12      0.00000(cons'd)     -0.00000(cons'd)      0.00013         *
 * In              1      0.00000(cons'd)      0.00000(cons'd)     -0.00009         *
 * In              2      0.00000(cons'd)      0.00000(cons'd)     -0.00007         *
 * In              3      0.00000(cons'd)      0.00000(cons'd)     -0.00009         *
 * In              4      0.00000(cons'd)      0.00000(cons'd)     -0.00001         *
 * In              5      0.00000(cons'd)      0.00000(cons'd)      0.00002         *
 * In              6      0.00000(cons'd)     -0.00000(cons'd)      0.00003         *
 * In              7      0.00000(cons'd)     -0.00000(cons'd)     -0.00001         *
 * In              8     -0.00000(cons'd)      0.00000(cons'd)     -0.00007         *
 * In              9      0.00000(cons'd)      0.00000(cons'd)     -0.00002         *
 * In             10      0.00000(cons'd)      0.00000(cons'd)     -0.00001         *
 * In             11     -0.00000(cons'd)      0.00000(cons'd)     -0.00001         *
 * In             12      0.00000(cons'd)      0.00000(cons'd)     -0.00003         *
 *                                                                                  *
 ************************************************************************************

 Pseudo atomic calculation performed for P 3s2 3p3

 Converged in 23 iterations to a total energy of -208.0292 eV

 Pseudo atomic calculation performed for In 4d10 5s2 5p1

 Converged in 42 iterations to a total energy of -1747.4501 eV
Charge spilling parameter for spin component 1 = 0.15%

            Orbital Populations       
     Ion    Atom   Orbital             Charge
  -------------------------------------------
      P     1      S                    1.735
      P     1      Px                   1.314
      P     1      Py                   1.314
      P     1      Pz                   1.313
      P     2      S                    1.735
      P     2      Px                   1.314
      P     2      Py                   1.314
      P     2      Pz                   1.313
      P     3      S                    1.735
      P     3      Px                   1.314
      P     3      Py                   1.314
      P     3      Pz                   1.313
      P     4      S                    1.735
      P     4      Px                   1.314
      P     4      Py                   1.314
      P     4      Pz                   1.313
      P     5      S                    1.735
      P     5      Px                   1.314
      P     5      Py                   1.314
      P     5      Pz                   1.313
      P     6      S                    1.735
      P     6      Px                   1.314
      P     6      Py                   1.314
      P     6      Pz                   1.313
      P     7      S                    1.735
      P     7      Px                   1.314
      P     7      Py                   1.314
      P     7      Pz                   1.313
      P     8      S                    1.735
      P     8      Px                   1.314
      P     8      Py                   1.314
      P     8      Pz                   1.313
      P     9      S                    1.735
      P     9      Px                   1.314
      P     9      Py                   1.314
      P     9      Pz                   1.313
      P    10      S                    1.735
      P    10      Px                   1.314
      P    10      Py                   1.314
      P    10      Pz                   1.313
      P    11      S                    1.735
      P    11      Px                   1.314
      P    11      Py                   1.314
      P    11      Pz                   1.313
      P    12      S                    1.735
      P    12      Px                   1.314
      P    12      Py                   1.314
      P    12      Pz                   1.313
     In     1      Dzz                  1.999
     In     1      Dzy                  1.997
     In     1      Dzx                  1.997
     In     1      Dxx-yy               1.999
     In     1      Dxy                  1.997
     In     1      S                    1.432
     In     1      Px                   0.482
     In     1      Py                   0.482
     In     1      Pz                   0.482
     In     1      S                   -0.544
     In     2      Dzz                  1.999
     In     2      Dzy                  1.997
     In     2      Dzx                  1.997
     In     2      Dxx-yy               1.999
     In     2      Dxy                  1.997
     In     2      S                    1.432
     In     2      Px                   0.482
     In     2      Py                   0.482
     In     2      Pz                   0.482
     In     2      S                   -0.544
     In     3      Dzz                  1.999
     In     3      Dzy                  1.997
     In     3      Dzx                  1.997
     In     3      Dxx-yy               1.999
     In     3      Dxy                  1.997
     In     3      S                    1.432
     In     3      Px                   0.482
     In     3      Py                   0.482
     In     3      Pz                   0.482
     In     3      S                   -0.544
     In     4      Dzz                  1.999
     In     4      Dzy                  1.997
     In     4      Dzx                  1.997
     In     4      Dxx-yy               1.999
     In     4      Dxy                  1.997
     In     4      S                    1.432
     In     4      Px                   0.482
     In     4      Py                   0.482
     In     4      Pz                   0.482
     In     4      S                   -0.544
     In     5      Dzz                  1.999
     In     5      Dzy                  1.997
     In     5      Dzx                  1.997
     In     5      Dxx-yy               1.999
     In     5      Dxy                  1.997
     In     5      S                    1.432
     In     5      Px                   0.482
     In     5      Py                   0.482
     In     5      Pz                   0.482
     In     5      S                   -0.544
     In     6      Dzz                  1.999
     In     6      Dzy                  1.997
     In     6      Dzx                  1.997
     In     6      Dxx-yy               1.999
     In     6      Dxy                  1.997
     In     6      S                    1.432
     In     6      Px                   0.482
     In     6      Py                   0.482
     In     6      Pz                   0.482
     In     6      S                   -0.544
     In     7      Dzz                  1.999
     In     7      Dzy                  1.997
     In     7      Dzx                  1.997
     In     7      Dxx-yy               1.999
     In     7      Dxy                  1.997
     In     7      S                    1.432
     In     7      Px                   0.482
     In     7      Py                   0.482
     In     7      Pz                   0.482
     In     7      S                   -0.544
     In     8      Dzz                  1.999
     In     8      Dzy                  1.997
     In     8      Dzx                  1.997
     In     8      Dxx-yy               1.999
     In     8      Dxy                  1.997
     In     8      S                    1.432
     In     8      Px                   0.482
     In     8      Py                   0.482
     In     8      Pz                   0.482
     In     8      S                   -0.544
     In     9      Dzz                  1.999
     In     9      Dzy                  1.997
     In     9      Dzx                  1.997
     In     9      Dxx-yy               1.999
     In     9      Dxy                  1.997
     In     9      S                    1.432
     In     9      Px                   0.482
     In     9      Py                   0.482
     In     9      Pz                   0.482
     In     9      S                   -0.544
     In    10      Dzz                  1.999
     In    10      Dzy                  1.997
     In    10      Dzx                  1.997
     In    10      Dxx-yy               1.999
     In    10      Dxy                  1.997
     In    10      S                    1.432
     In    10      Px                   0.482
     In    10      Py                   0.482
     In    10      Pz                   0.482
     In    10      S                   -0.544
     In    11      Dzz                  1.999
     In    11      Dzy                  1.997
     In    11      Dzx                  1.997
     In    11      Dxx-yy               1.999
     In    11      Dxy                  1.997
     In    11      S                    1.432
     In    11      Px                   0.482
     In    11      Py                   0.482
     In    11      Pz                   0.482
     In    11      S                   -0.544
     In    12      Dzz                  1.999
     In    12      Dzy                  1.997
     In    12      Dzx                  1.997
     In    12      Dxx-yy               1.999
     In    12      Dxy                  1.997
     In    12      S                    1.432
     In    12      Px                   0.482
     In    12      Py                   0.482
     In    12      Pz                   0.482
     In    12      S                   -0.544
  -------------------------------------------
                           Total:     216.000
  -------------------------------------------

     Atomic Populations (Mulliken)
     -----------------------------
Species          Ion     s       p       d       f      Total   Charge (e)
==========================================================================
  P               1     1.735   3.941   0.000   0.000   5.676    -0.676
  P               2     1.735   3.941   0.000   0.000   5.676    -0.676
  P               3     1.735   3.941   0.000   0.000   5.676    -0.676
  P               4     1.735   3.941   0.000   0.000   5.676    -0.676
  P               5     1.735   3.941   0.000   0.000   5.676    -0.676
  P               6     1.735   3.941   0.000   0.000   5.676    -0.676
  P               7     1.735   3.941   0.000   0.000   5.676    -0.676
  P               8     1.735   3.941   0.000   0.000   5.676    -0.676
  P               9     1.735   3.941   0.000   0.000   5.676    -0.676
  P              10     1.735   3.941   0.000   0.000   5.676    -0.676
  P              11     1.735   3.941   0.000   0.000   5.676    -0.676
  P              12     1.735   3.941   0.000   0.000   5.676    -0.676
  In              1     0.888   1.447   9.989   0.000  12.324     0.676
  In              2     0.888   1.447   9.989   0.000  12.324     0.676
  In              3     0.888   1.447   9.989   0.000  12.324     0.676
  In              4     0.888   1.447   9.989   0.000  12.324     0.676
  In              5     0.888   1.447   9.989   0.000  12.324     0.676
  In              6     0.888   1.447   9.989   0.000  12.324     0.676
  In              7     0.888   1.447   9.989   0.000  12.324     0.676
  In              8     0.888   1.447   9.989   0.000  12.324     0.676
  In              9     0.888   1.447   9.989   0.000  12.324     0.676
  In             10     0.888   1.447   9.989   0.000  12.324     0.676
  In             11     0.888   1.447   9.989   0.000  12.324     0.676
  In             12     0.888   1.447   9.989   0.000  12.324     0.676
==========================================================================

                 Bond                   Population      Length (A)
======================================================================
              P 2  -- In 8                   0.58        2.55533
              P 3  -- In 2                   0.58        2.55533
              P 4  -- In 3                   0.58        2.55533
              P 1  -- In 1                   0.58        2.55533
              P 12 -- In 12                  0.58        2.55533
              P 7  -- In 9                   0.58        2.55533
              P 10 -- In 5                   0.58        2.55533
              P 9  -- In 6                   0.58        2.55533
              P 11 -- In 11                  0.58        2.55533
              P 6  -- In 10                  0.58        2.55533
              P 8  -- In 7                   0.58        2.55533
              P 5  -- In 4                   0.58        2.55533
              P 9  -- In 4                   0.58        2.55533
              P 10 -- In 4                   0.58        2.55533
              P 9  -- In 7                   0.58        2.55533
              P 5  -- In 10                  0.58        2.55533
              P 10 -- In 7                   0.58        2.55533
              P 5  -- In 11                  0.58        2.55533
              P 8  -- In 10                  0.58        2.55533
              P 8  -- In 11                  0.58        2.55533
              P 4  -- In 6                   0.58        2.55533
              P 1  -- In 6                   0.58        2.55533
              P 4  -- In 5                   0.58        2.55533
              P 1  -- In 5                   0.58        2.55533
              P 6  -- In 9                   0.58        2.55533
              P 11 -- In 9                   0.58        2.55533
              P 6  -- In 12                  0.58        2.55533
              P 11 -- In 12                  0.58        2.55533
              P 3  -- In 1                   0.58        2.55533
              P 3  -- In 3                   0.58        2.55533
              P 2  -- In 1                   0.58        2.55533
              P 2  -- In 3                   0.58        2.55533
              P 12 -- In 8                   0.58        2.55533
              P 7  -- In 8                   0.58        2.55533
              P 12 -- In 2                   0.58        2.55533
              P 7  -- In 2                   0.58        2.55533
              P 2  -- In 2                   0.58        2.55533
              P 3  -- In 8                   0.58        2.55533
              P 1  -- In 3                   0.58        2.55533
              P 4  -- In 1                   0.58        2.55533
              P 7  -- In 12                  0.58        2.55533
              P 12 -- In 9                   0.58        2.55533
              P 10 -- In 6                   0.58        2.55533
              P 9  -- In 5                   0.58        2.55533
              P 6  -- In 11                  0.58        2.55533
              P 11 -- In 10                  0.58        2.55533
              P 8  -- In 4                   0.58        2.55533
              P 5  -- In 7                   0.58        2.55533
======================================================================

 Hirshfeld supercell size:           3           3           1
Standard grid dimensions: 180 180 192
Fine grid dimensions:     180 180 192


     Hirshfeld Analysis
     ------------------
Species   Ion     Hirshfeld Charge (e)
======================================
  P        1                -0.24
  P        2                -0.24
  P        3                -0.24
  P        4                -0.24
  P        5                -0.24
  P        6                -0.24
  P        7                -0.24
  P        8                -0.24
  P        9                -0.24
  P       10                -0.24
  P       11                -0.24
  P       12                -0.24
  In       1                 0.24
  In       2                 0.24
  In       3                 0.24
  In       4                 0.24
  In       5                 0.24
  In       6                 0.24
  In       7                 0.24
  In       8                 0.24
  In       9                 0.24
  In      10                 0.24
  In      11                 0.24
  In      12                 0.24
======================================

 
 A BibTeX formatted list of references used in this run has been written to 
 StackingFaultStructs_001_100_8.bib
 
Initialisation time =     22.30 s
Calculation time    =   1617.39 s
Finalisation time   =     59.70 s
Total time          =   1699.40 s
Peak Memory Use     = 6017660 kB
 
Overall parallel efficiency rating: Poor (36%)
 
Data was distributed by:-
G-vector (2-way); efficiency rating: Poor (44%)
k-point (40-way); efficiency rating: Satisfactory (68%)
