65
Lattice="11.80255 0.0 0.0 0.0 11.80255 0.0 0.0 0.0 11.80255" Properties=species:S:1:pos:R:3:mulliken_charges:R:1 fermi_energy=4.781312370495001 core_to_fermi_energy=16.851734769525017 config_type=Interstitial energy=-225.21848798393668 pbc="T T T"
P        1.47531875       1.47531875       4.53467226      -0.63200000
P        4.53467226       1.47531875       1.47531875      -0.63200000
P        1.47531875       4.53467226       1.47531875      -0.63200000
P        4.37002557       4.37002557       4.37002557      -0.67300000
P        1.47531875       1.47531875      10.21851524      -0.63200000
P        4.45887226       1.47531875       7.37659375      -0.67100000
P        1.47531875       4.45887226       7.37659375      -0.67100000
P        4.50926707       4.50926707      10.24392043      -0.67000000
P        1.47531875       7.37659375       4.45887226      -0.67100000
P        4.45887226       7.37659375       1.47531875      -0.67100000
P        1.47531875      10.21851524       1.47531875      -0.63200000
P        4.50926707      10.24392043       4.50926707      -0.67000000
P        1.47531875       7.37659375      10.29431524      -0.67100000
P        4.48504002       7.37659375       7.37659375      -0.67400000
P        1.47531875      10.29431524       7.37659375      -0.67100000
P        4.37002557      10.38316193      10.38316193      -0.67300000
P        7.37659375       1.47531875       4.45887226      -0.67100000
P       10.21851524       1.47531875       1.47531875      -0.63200000
P        7.37659375       4.45887226       1.47531875      -0.67100000
P       10.24392043       4.50926707       4.50926707      -0.67000000
P        7.37659375       1.47531875      10.29431524      -0.67100000
P       10.29431524       1.47531875       7.37659375      -0.67100000
P        7.37659375       4.48504002       7.37659375      -0.67400000
P       10.38316193       4.37002557      10.38316193      -0.67300000
P        7.37659375       7.37659375       4.48504002      -0.67400000
P       10.29431524       7.37659375       1.47531875      -0.67100000
P        7.37659375      10.29431524       1.47531875      -0.67100000
P       10.38316193      10.38316193       4.37002557      -0.67300000
P        7.37659375       7.37659375      10.26814748      -0.67400000
P       10.26814748       7.37659375       7.37659375      -0.67400000
P        7.37659375      10.26814748       7.37659375      -0.67400000
P       10.24392043      10.24392043      10.24392043      -0.67000000
In      -0.10230192      -0.10230192      -0.10230192       0.61300000
In       3.05293942      -0.10230192       3.05293942       0.61300000
In      -0.10230192       3.05293942       3.05293942       0.61300000
In       3.05293942       3.05293942      -0.10230192       0.61300000
In      -0.00384549      -0.00384549       5.94526633       0.66000000
In       2.95448299      -0.00384549       8.80792117       0.66000000
In      -0.00384549       2.95448299       8.80792117       0.66100000
In       2.95448299       2.95448299       5.94526633       0.66000000
In      -0.00384549       5.94526633      -0.00384549       0.66000000
In       2.95448299       5.94526633       2.95448299       0.66000000
In      -0.00384549       8.80792117       2.95448299       0.66100000
In       2.95448299       8.80792117      -0.00384549       0.66100000
In      -0.03886585       5.95152990       5.95152990       0.65700000
In       2.98950335       5.95152990       8.80165760       0.65700000
In      -0.03886585       8.80165760       8.80165760       0.65700000
In       2.98950335       8.80165760       5.95152990       0.65700000
In       5.94526633      -0.00384549      -0.00384549       0.66000000
In       8.80792117      -0.00384549       2.95448299       0.66000000
In       5.94526633       2.95448299       2.95448299       0.66000000
In       8.80792117       2.95448299      -0.00384549       0.66100000
In       5.95152990      -0.03886585       5.95152990       0.65700000
In       8.80165760      -0.03886585       8.80165760       0.65700000
In       5.95152990       2.98950335       8.80165760       0.65700000
In       8.80165760       2.98950335       5.95152990       0.65700000
In       5.95152990       5.95152990      -0.03886585       0.65700000
In       8.80165760       5.95152990       2.98950335       0.65700000
In       5.95152990       8.80165760       2.98950335       0.65700000
In       8.80165760       8.80165760      -0.03886585       0.65700000
In       5.85194427       5.85194427       5.85194427       0.66500000
In       8.90124323       5.85194427       8.90124323       0.66500000
In       5.85194427       8.90124323       8.90124323       0.66500000
In       8.90124323       8.90124323       5.85194427       0.66500000
In       1.47531875       1.47531875       1.47531875       0.34500000
65
Lattice="11.80255 0.0 0.0 0.0 11.80255 0.0 0.0 0.0 11.80255" Properties=species:S:1:pos:R:3:mulliken_charges:R:1 fermi_energy=4.781312370495001 core_to_fermi_energy=16.851734769525017 config_type=Interstitial energy=-225.18144446654364 pbc="T T T"
P        1.47106920       1.47956830       4.49624403      -0.63200000
P        4.56690153       1.45058369       1.45932528      -0.63200000
P        1.47106920       4.48750243       1.48830989      -0.63200000
P        4.39804560       4.34913509       4.35787670      -0.67300000
P        1.50005382       1.45058368      10.19502758      -0.63200000
P        4.48966566       1.47848837       7.36090530      -0.67100000
P        1.50140817       4.42298559       7.35385523      -0.67100000
P        4.51034613       4.54643757      10.25158297      -0.67000000
P        1.50140817       7.34511363       4.43172719      -0.67100000
P        4.48966566       7.35216369       1.48722997      -0.67100000
P        1.50005382      10.18628597       1.45932528      -0.63200000
P        4.51034612      10.24284138       4.55517916      -0.67000000
P        1.47214913       7.35216369      10.27226344      -0.67100000
P        4.51340984       7.35036093       7.35910253      -0.67400000
P        1.47214913      10.26352184       7.36090530      -0.67100000
P        4.39711948      10.35606802      10.36480962      -0.67300000
P        7.40807387       1.44922933       4.43172719      -0.67100000
P       10.26568507       1.47956830       1.48830989      -0.63200000
P        7.40807387       4.42298559       1.45797094      -0.67100000
P       10.26068924       4.49249826       4.50123986      -0.67000000
P        7.40102381       1.47848837      10.27226344      -0.67100000
P       10.33020191       1.44922933       7.35385523      -0.67100000
P        7.39970640       4.45425260       7.36222270      -0.67400000
P       10.40405241       4.34913509      10.36388350      -0.67300000
P        7.39970640       7.35348110       4.46299420      -0.67400000
P       10.33020191       7.34511363       1.45797094      -0.67100000
P        7.40102381      10.26352184       1.48722997      -0.67100000
P       10.40405241      10.35514190       4.35787670      -0.67300000
P        7.40282657       7.35036093      10.24851927      -0.67400000
P       10.29893490       7.35348110       7.36222270      -0.67400000
P        7.40282657      10.23977766       7.35910253      -0.67400000
P       10.20674993      10.24284137      10.25158297      -0.67000000
In      -0.11133957      -0.11950768      -0.11076608       0.61300000
In       3.07014520      -0.11950770       3.07071869       0.61300000
In      -0.09061271       3.04125021       3.04999181       0.61300000
In       3.07014518       3.06197706      -0.11076608       0.61300000
In       0.02690903      -0.02373333       5.90861572       0.66000000
In       2.98449425      -0.03385675       8.76267358       0.66000000
In       0.01936494       2.93127256       8.79599984       0.66100000
In       2.97437083       2.92372847       5.90861572       0.66000000
In       0.02690904       5.89987412      -0.01499173       0.66000000
In       2.97437083       5.89987412       2.93247007       0.66000000
In       0.01936494       8.78725824       2.94001416       0.66100000
In       2.98449425       8.75393198      -0.02511515       0.66100000
In      -0.00403320       5.92607887       5.93482047       0.65700000
In       2.98850769       5.94538535       8.76887034       0.65700000
In      -0.06213827       8.80279536       8.81153696       0.65700000
In       2.98850769       8.76012874       5.95412695       0.65700000
In       5.99925552      -0.03385675      -0.02511515       0.66000000
In       8.85331338      -0.02373333       2.93247007       0.66000000
In       5.96592926       2.93127256       2.94001416       0.66000000
In       8.85331338       2.92372846      -0.01499173       0.66100000
In       5.99305876      -0.03787019       5.95412695       0.65700000
In       8.80780215      -0.03787019       8.76887034       0.65700000
In       5.95039214       3.01277577       8.81153696       0.65700000
In       8.82710863       2.95467070       5.93482047       0.65700000
In       5.99305876       5.94538535      -0.02912859       0.65700000
In       8.82710863       5.92607887       2.96341230       0.65700000
In       5.95039214       8.80279536       3.02151737       0.65700000
In       8.80780215       8.76012874      -0.02912859       0.65700000
In       5.88635584       5.82796232       5.83670392       0.66500000
In       8.92522518       5.82796232       8.87557326       0.66500000
In       5.87683283       8.87635467       8.88509627       0.66500000
In       8.92522518       8.86683166       5.83670392       0.66500000
In       1.56764698       1.38299052       1.39173210       0.34500000
65
Lattice="11.80255 0.0 0.0 0.0 11.80255 0.0 0.0 0.0 11.80255" Properties=species:S:1:pos:R:3:mulliken_charges:R:1 fermi_energy=4.781312370495001 core_to_fermi_energy=16.851734769525017 config_type=Interstitial energy=-225.10379327333874 pbc="T T T"
P        1.45079252       1.49984497       4.48127808      -0.63200000
P        4.57557118       1.45217097       1.46091260      -0.63200000
P        1.45079252       4.47253647       1.50858661      -0.63200000
P        4.39678674       4.35659325       4.36533485      -0.67300000
P        1.49846653       1.45217097      10.18635793      -0.63200000
P        4.49325580       1.48776827       7.35508168      -0.67100000
P        1.50188258       4.41864820       7.35555071      -0.67100000
P        4.50307435       4.56714015      10.25885477      -0.67000000
P        1.50188258       7.34680910       4.42738981      -0.67100000
P        4.49325580       7.34634008       1.49650988      -0.67100000
P        1.49846653      10.17761632       1.46091260      -0.63200000
P        4.50307438      10.25011312       4.57588181      -0.67000000
P        1.46286923       7.34634007      10.26867331      -0.67100000
P        4.51450334       7.34732767       7.35606929      -0.67400000
P        1.46286923      10.25993170       7.35508168      -0.67100000
P        4.40618630      10.34700121      10.35574281      -0.67300000
P        7.40637840       1.44875492       4.42738981      -0.67100000
P       10.28065103       1.49984498       1.50858660      -0.63200000
P        7.40637840       4.41864820       1.45749653      -0.67100000
P       10.25392820       4.49925930       4.50800092      -0.67000000
P        7.40684743       1.48776827      10.26867331      -0.67100000
P       10.33453930       1.44875492       7.35555072      -0.67100000
P        7.39980998       4.44669689       7.36211913      -0.67400000
P       10.39659426       4.35659324      10.36514236      -0.67300000
P        7.39980998       7.35337752       4.45543850      -0.67400000
P       10.33453930       7.34680910       1.45749653      -0.67100000
P        7.40684742      10.25993170       1.49650988      -0.67100000
P       10.39659425      10.35640076       4.36533485      -0.67300000
P        7.40585982       7.34732768      10.24742577      -0.67400000
P       10.30649061       7.35337752       7.36211913      -0.67400000
P        7.40585983      10.23868416       7.35606929      -0.67400000
P       10.18604734      10.25011314      10.25885476      -0.67000000
In      -0.13111692      -0.11492982      -0.10618821       0.61300000
In       3.06556727      -0.11492977       3.09049598       0.61300000
In      -0.10625472       3.05689222       3.06563383       0.61300000
In       3.06556734       3.08175444      -0.10618823       0.61300000
In       0.02724001      -0.01732750       5.89964029       0.66000000
In       2.99056043      -0.03992293       8.74062908       0.66000000
In       0.01213040       2.93850710       8.80397869       0.66100000
In       2.96796500       2.92339749       5.89964029       0.66000000
In       0.02724001       5.89089869      -0.00858589       0.66000000
In       2.96796500       5.89089867       2.93213910       0.66000000
In       0.01213040       8.79523709       2.94724871       0.66100000
In       2.99056042       8.73188746      -0.03118131       0.66100000
In       0.00679893       5.92393189       5.93267351       0.65700000
In       2.98274621       5.95005728       8.76370516       0.65700000
In      -0.07306821       8.81094572       8.81968733       0.65700000
In       2.98274621       8.75496355       5.95879889       0.65700000
In       6.02130004      -0.03992293      -0.03118131       0.66000000
In       8.86228883      -0.01732750       2.93213910       0.66000000
In       5.95795042       2.93850710       2.94724871       0.66000000
In       8.86228881       2.92339749      -0.00858589       0.66100000
In       5.99822395      -0.03210871       5.95879889       0.65700000
In       8.80313022      -0.03210871       8.76370516       0.65700000
In       5.94224178       3.02370571       8.81968733       0.65700000
In       8.82925561       2.94383857       5.93267350       0.65700000
In       5.99822395       5.95005727      -0.02336710       0.65700000
In       8.82925561       5.92393189       2.95258018       0.65700000
In       5.94224178       8.81094572       3.03244732       0.65700000
In       8.80313023       8.75496355      -0.02336710       0.65700000
In       5.89542856       5.82951222       5.83825384       0.66500000
In       8.92367527       5.82951223       8.86650056       0.66500000
In       5.88501819       8.86816931       8.87691092       0.66500000
In       8.92367528       8.85775894       5.83825384       0.66500000
In       1.65096130       1.29967619       1.30841787       0.34500000
65
Lattice="11.80255 0.0 0.0 0.0 11.80255 0.0 0.0 0.0 11.80255" Properties=species:S:1:pos:R:3:mulliken_charges:R:1 fermi_energy=4.781312370495001 core_to_fermi_energy=16.851734769525017 config_type=Interstitial energy=-224.98675263740188 pbc="T T T"
P        1.43511598       1.51552152       4.47381204      -0.63200000
P        4.58395286       1.45318210       1.46192369      -0.63200000
P        1.43511599       4.46507043       1.52426312      -0.63200000
P        4.39462658       4.36598649       4.37472811      -0.67300000
P        1.49745541       1.45318210      10.17797626      -0.63200000
P        4.49677928       1.49395283       7.35045010      -0.67100000
P        1.50066160       4.41701978       7.35997559      -0.67100000
P        4.49609785       4.58024415      10.26583126      -0.67000000
P        1.50066160       7.35123398       4.42576139      -0.67100000
P        4.49677929       7.34170848       1.50269444      -0.67100000
P        1.49745541      10.16923463       1.46192369      -0.63200000
P        4.49609782      10.25708969       4.58898571      -0.67000000
P        1.45668467       7.34170849      10.26514983      -0.67100000
P        4.51277479       7.34462223       7.35336383      -0.67400000
P        1.45668467      10.25640822       7.35045010      -0.67100000
P        4.41891666      10.33427083      10.34301245      -0.67300000
P        7.40195352       1.44997590       4.42576139      -0.67100000
P       10.28811707       1.51552152       1.52426312      -0.63200000
P        7.40195351       4.41701978       1.45871751      -0.67100000
P       10.24719536       4.50599215       4.51473375      -0.67000000
P        7.41147901       1.49395283      10.26514983      -0.67100000
P       10.33616772       1.44997590       7.35997559      -0.67100000
P        7.39893961       4.43907964       7.36298950      -0.67400000
P       10.38720100       4.36598649      10.36730254      -0.67300000
P        7.39893961       7.35424789       4.44782125      -0.67400000
P       10.33616772       7.35123398       1.45871751      -0.67100000
P        7.41147901      10.25640821       1.50269444      -0.67100000
P       10.38720101      10.35856092       4.37472811      -0.67300000
P        7.40856528       7.34462222      10.24915432      -0.67400000
P       10.31410786       7.35424789       7.36298950      -0.67400000
P        7.40856528      10.24041271       7.35336383      -0.67400000
P       10.17294337      10.25708967      10.26583127      -0.67000000
In      -0.14928214      -0.10715432      -0.09841272       0.61300000
In       3.05779187      -0.10715437       3.10866131       0.61300000
In      -0.12371825       3.07435575       3.08309737       0.61300000
In       3.05779179       3.09991960      -0.09841268       0.61300000
In       0.02432400      -0.01270665       5.89758983       0.66000000
In       2.99830534      -0.04766784       8.71855118       0.66000000
In       0.00346575       2.94717175       8.81442563       0.66100000
In       2.96334415       2.92631350       5.89758982       0.66000000
In       0.02432400       5.88884821      -0.00396504       0.66000000
In       2.96334415       5.88884822       2.93505510       0.66000000
In       0.00346574       8.80568401       2.95591337       0.66100000
In       2.99830535       8.70980958      -0.03892624       0.66100000
In       0.01578496       5.92115937       5.92990097       0.65700000
In       2.97888359       5.95180399       8.76248837       0.65700000
In      -0.07826014       8.81890769       8.82764930       0.65700000
In       2.97888359       8.75374676       5.96054560       0.65700000
In       6.04337793      -0.04766785      -0.03892624       0.66000000
In       8.86433927      -0.01270665       2.93505511       0.66000000
In       5.94750348       2.94717176       2.95591337       0.66000000
In       8.86433929       2.92631350      -0.00396504       0.66100000
In       5.99944074      -0.02824609       5.96054560       0.65700000
In       8.80138351      -0.02824609       8.76248837       0.65700000
In       5.93427981       3.02889763       8.82764930       0.65700000
In       8.83202813       2.93485254       5.92990098       0.65700000
In       5.99944074       5.95180399      -0.01950448       0.65700000
In       8.83202814       5.92115936       2.94359415       0.65700000
In       5.93427981       8.81890769       3.03763925       0.65700000
In       8.80138351       8.75374676      -0.01950448       0.65700000
In       5.90393320       5.83264962       5.84139123       0.66500000
In       8.92053788       5.83264962       8.85799591       0.66500000
In       5.89632807       8.85685944       8.86560104       0.66500000
In       8.92053788       8.84925430       5.84139123       0.66500000
In       1.75922059       1.19141695       1.20015846       0.34500000
65
Lattice="11.80255 0.0 0.0 0.0 11.80255 0.0 0.0 0.0 11.80255" Properties=species:S:1:pos:R:3:mulliken_charges:R:1 fermi_energy=4.781312370495001 core_to_fermi_energy=16.851734769525017 config_type=Interstitial energy=-224.87569568277684 pbc="T T T"
P        1.42680641       1.52383109       4.47419134      -0.63200000
P        4.59296540       1.45233467       1.46107629      -0.63200000
P        1.42680640       4.46544973       1.53257271      -0.63200000
P        4.39284538       4.37520922       4.38395083      -0.67300000
P        1.49830282       1.45233467      10.16896372      -0.63200000
P        4.49932286       1.49769790       7.34752685      -0.67100000
P        1.49817677       4.41791526       7.36603388      -0.67100000
P        4.48919662       4.58602713      10.27273249      -0.67000000
P        1.49817677       7.35729227       4.42665687      -0.67100000
P        4.49932286       7.33878524       1.50643951      -0.67100000
P        1.49830282      10.16022211       1.46107629      -0.63200000
P        4.48919662      10.26399087       4.59476875      -0.67000000
P        1.45293960       7.33878524      10.26260625      -0.67100000
P        4.50933661       7.34244510       7.35118671      -0.67400000
P        1.45293960      10.25386464       7.34752685      -0.67100000
P        4.43182374      10.32136377      10.33010537      -0.67300000
P        7.39589523       1.45246073       4.42665687      -0.67100000
P       10.28773777       1.52383109       1.53257270      -0.63200000
P        7.39589523       4.41791526       1.46120234      -0.67100000
P       10.24333735       4.50985015       4.51859176      -0.67000000
P        7.41440226       1.49769790      10.26260625      -0.67100000
P       10.33527224       1.45246073       7.36603388      -0.67100000
P        7.39714224       4.43266611       7.36478687      -0.67400000
P       10.37797828       4.37520922      10.36908373      -0.67300000
P        7.39714224       7.35604526       4.44140772      -0.67400000
P       10.33527224       7.35729227       1.46120234      -0.67100000
P        7.41440226      10.25386464       1.50643951      -0.67100000
P       10.37797828      10.36034213       4.38395083      -0.67300000
P        7.41074240       7.34244510      10.25259250      -0.67400000
P       10.32052139       7.35604526       7.36478687      -0.67400000
P        7.41074240      10.24385089       7.35118671      -0.67400000
P       10.16716036      10.26399087      10.27273248      -0.67000000
In      -0.16136286      -0.09723841      -0.08849680       0.61300000
In       3.04787591      -0.09723842       3.12074199       0.61300000
In      -0.13472287       3.08536037       3.09410198       0.61300000
In       3.04787593       3.11200041      -0.08849683       0.61300000
In       0.01850767      -0.01043933       5.90187108       0.66000000
In       3.00675461      -0.05611711       8.69935057       0.66000000
In      -0.00439765       2.95503515       8.82457541       0.66100000
In       2.96107683       2.93212983       5.90187109       0.66000000
In       0.01850767       5.89312948      -0.00169773       0.66000000
In       2.96107683       5.89312948       2.94087144       0.66000000
In      -0.00439765       8.81583381       2.96377676       0.66100000
In       3.00675460       8.69060896      -0.04737550       0.66100000
In       0.02113877       5.91883723       5.92757884       0.65700000
In       2.97627871       5.95151429       8.76459216       0.65700000
In      -0.07889781       8.82690908       8.83565069       0.65700000
In       2.97627871       8.75585055       5.96025590       0.65700000
In       6.06257854      -0.05611711      -0.04737550       0.66000000
In       8.86005803      -0.01043933       2.94087144       0.66000000
In       5.93735370       2.95503515       2.96377676       0.66000000
In       8.86005802       2.93212983      -0.00169772       0.66100000
In       5.99733695      -0.02564121       5.96025590       0.65700000
In       8.80167321      -0.02564121       8.76459216       0.65700000
In       5.92627842       3.02953532       8.83565069       0.65700000
In       8.83435027       2.92949873       5.92757884       0.65700000
In       5.99733695       5.95151429      -0.01689960       0.65700000
In       8.83435026       5.91883723       2.93824034       0.65700000
In       5.92627842       8.82690908       3.03827692       0.65700000
In       8.80167321       8.75585055      -0.01689960       0.65700000
In       5.91083535       5.83645235       5.84519396       0.66500000
In       8.91673515       5.83645235       8.85109376       0.66500000
In       5.90777591       8.84541159       8.85415320       0.66500000
In       8.91673515       8.84235215       5.84519396       0.66500000
In       1.87013375       1.08050370       1.08924534       0.34500000
65
Lattice="11.80255 0.0 0.0 0.0 11.80255 0.0 0.0 0.0 11.80255" Properties=species:S:1:pos:R:3:mulliken_charges:R:1 fermi_energy=4.781312370495001 core_to_fermi_energy=16.851734769525017 config_type=Interstitial energy=-224.80268602690836 pbc="T T T"
P        1.42315261       1.52748489       4.47801123      -0.63200000
P        4.60316684       1.44989321       1.45863483      -0.63200000
P        1.42315261       4.46926962       1.53622650      -0.63200000
P        4.39195199       4.38356444       4.39230605      -0.67300000
P        1.50074429       1.44989322      10.15876226      -0.63200000
P        4.50081764       1.49999268       7.34587745      -0.67100000
P        1.49517412       4.42009866       7.37256147      -0.67100000
P        4.48225411       4.58691656      10.27967501      -0.67000000
P        1.49517412       7.36381986       4.42884027      -0.67100000
P        4.50081764       7.33713584       1.50873429      -0.67100000
P        1.50074429      10.15002066       1.45863483      -0.63200000
P        4.48225411      10.27093339       4.59565818      -0.67000000
P        1.45064482       7.33713584      10.26111147      -0.67100000
P        4.50524311       7.34077299       7.34951460      -0.67400000
P        1.45064482      10.25236986       7.34587745      -0.67100000
P        4.44309789      10.31008961      10.31883122      -0.67300000
P        7.38936764       1.45546338       4.42884027      -0.67100000
P       10.28391788       1.52748489       1.53622650      -0.63200000
P        7.38936764       4.42009866       1.46420499      -0.67100000
P       10.24186317       4.51132433       4.52006594      -0.67000000
P        7.41605166       1.49999268      10.26111147      -0.67100000
P       10.33308884       1.45546338       7.37256147      -0.67100000
P        7.39462404       4.42780244       7.36730507      -0.67400000
P       10.36962306       4.38356444      10.36997712      -0.67300000
P        7.39462404       7.35856346       4.43654405      -0.67400000
P       10.33308884       7.36381986       1.46420499      -0.67100000
P        7.41605166      10.25236986       1.50873429      -0.67100000
P       10.36962306      10.36123551       4.39230605      -0.67300000
P        7.41241451       7.34077299      10.25668600      -0.67400000
P       10.32538506       7.35856346       7.36730507      -0.67400000
P        7.41241451      10.24794439       7.34951460      -0.67400000
P       10.16627095      10.27093340      10.27967501      -0.67000000
In      -0.16678137      -0.08609247      -0.07735086       0.61300000
In       3.03672995      -0.08609245       3.12616044       0.61300000
In      -0.13914985       3.08978735       3.09852896       0.61300000
In       3.03672996       3.11741885      -0.07735085       0.61300000
In       0.01152706      -0.00947985       5.90902259       0.66000000
In       3.01506801      -0.06443051       8.68379695       0.66000000
In      -0.01096309       2.96160059       8.83328280       0.66100000
In       2.96011735       2.93911044       5.90902259       0.66000000
In       0.01152706       5.90028098      -0.00073824       0.66000000
In       2.96011735       5.90028098       2.94785205       0.66000000
In      -0.01096309       8.82454119       2.97034219       0.66100000
In       3.01506801       8.67505534      -0.05568890       0.66100000
In       0.02362386       5.91804153       5.92678314       0.65700000
In       2.97430838       5.95023992       8.76866202       0.65700000
In      -0.07700489       8.83480698       8.84354859       0.65700000
In       2.97430838       8.75992041       5.95898153       0.65700000
In       6.07813216      -0.06443051      -0.05568890       0.66000000
In       8.85290652      -0.00947985       2.94785205       0.66000000
In       5.92864631       2.96160058       2.97034219       0.66000000
In       8.85290652       2.93911044      -0.00073824       0.66100000
In       5.99326709      -0.02367088       5.95898153       0.65700000
In       8.80294758      -0.02367088       8.76866202       0.65700000
In       5.91838052       3.02764239       8.84354859       0.65700000
In       8.83514597       2.92701364       5.92678314       0.65700000
In       5.99326709       5.95023992      -0.01492927       0.65700000
In       8.83514597       5.91804153       2.93575525       0.65700000
In       5.91838052       8.83480698       3.03638400       0.65700000
In       8.80294758       8.75992041      -0.01492927       0.65700000
In       5.91611916       5.84033501       5.84907662       0.66500000
In       8.91285249       5.84033501       8.84580995       0.66500000
In       5.91780910       8.83537840       8.84412001       0.66500000
In       8.91285249       8.83706834       5.84907662       0.66500000
In       1.97519043       0.97544709       0.98418873       0.34500000
65
Lattice="11.80255 0.0 0.0 0.0 11.80255 0.0 0.0 0.0 11.80255" Properties=species:S:1:pos:R:3:mulliken_charges:R:1 fermi_energy=4.781312370495001 core_to_fermi_energy=16.851734769525017 config_type=Interstitial energy=-224.7828956079421 pbc="T T T"
P        1.42141752       1.52921998       4.48289184      -0.63200000
P        4.61482563       1.44609719       1.45483880      -0.63200000
P        1.42141752       4.47415023       1.53796159      -0.63200000
P        4.39185872       4.39163401       4.40037562      -0.67300000
P        1.50454031       1.44609719      10.14710349      -0.63200000
P        4.50151600       1.50153229       7.34499398      -0.67100000
P        1.49186325       4.42280432       7.37915205      -0.67100000