63
Lattice="11.8016818 -7.6e-06 -7.6e-06 -7.6e-06 11.8016818 -7.8e-06 -7.6e-06 -7.8e-06 11.8016816" Properties=species:S:1:pos:R:3:mulliken_charges:R:1 virial="-0.001343979365248383 3.847269175329341e-05 3.847269175329341e-05 3.847269175329341e-05 -0.001345261788306826 3.847269175329341e-05 3.847269175329341e-05 3.847269175329341e-05 -0.0013426969421899398" fermi_energy=3.4539138232004998 core_to_fermi_energy=15.43004959127955 config_type=Accurate_Bulk energy=-212.86956230536583 pbc="T T T"
P        1.48840455       1.48840450       4.42948893      -0.67500000
P        4.42948902       1.48840456       1.48840453      -0.67500000
P        1.48840456       4.42948900       1.48840449      -0.67500000
P        4.57392911       4.57392911       4.57392907      -0.67500000
In       0.00000193       0.00000188       0.00000188       0.67500000
In       2.96201807      -0.00415182       2.96201800       0.67500000
In      -0.00415177       2.96201799       2.96201793       0.67500000
In       2.96201808       2.96201806      -0.00415181       0.67500000
P        1.47743912       1.47743897      10.32423085      -0.67500000
P        4.43142945       1.49931854       7.37023804      -0.67500000
P        1.49931863       4.43142935       7.37023802      -0.67500000
P        4.43142848       4.43142837      10.30234691      -0.67500000
In      -0.00000172      -0.00000187       5.90084116       0.67500000
In       2.96201426       0.00413852       8.83966096       0.67500000
In       0.00413865       2.96201409       8.83966091       0.67500000
In       3.01854704       3.01854698       5.85725187       0.67500000
P        1.49931863       7.37023815       4.43142928      -0.67500000
P        4.43142945       7.37023817       1.49931852      -0.67500000
P        1.47743912      10.32423103       1.47743895      -0.67500000
P        4.43142848      10.30234710       4.43142829      -0.67500000
In      -0.00000172       5.90084126      -0.00000187       0.67500000
In       3.01854706       5.85725196       3.01854694       0.67500000
In       0.00413865       8.83966105       2.96201403       0.67500000
In       2.96201427       8.83966110       0.00413852       0.67500000
P        1.48839480       7.37218040      10.31326785      -0.67500000
P        4.57390559       7.22775342       7.22775326      -0.67500000
P        1.48839479      10.31326804       7.37218027      -0.67500000
P        4.42948035      10.31326428      10.31326410      -0.67500000
In      -0.00000661       5.90083820       5.90083810       0.67500000
In       3.01853530       5.94441210       8.78312863       0.67500000
In      -0.00415759       8.83965820       8.83965806       0.67500000
In       3.01853528       8.78312880       5.94441199       0.67500000
P        7.37023820       1.49931859       4.43142934      -0.67500000
P       10.32423105       1.47743909       1.47743907      -0.67500000
P        7.37023820       4.43142942       1.49931857      -0.67500000
P       10.30234714       4.43142844       4.43142836      -0.67500000
In       5.90084127      -0.00000177      -0.00000177       0.67500000
In       8.83966113       0.00413860       2.96201417       0.67500000
In       5.85725198       3.01854705       3.01854700       0.67500000
In       8.83966112       2.96201424       0.00413859       0.67500000
P        7.37218054       1.48839462      10.31326798      -0.67500000
P       10.31326817       1.48839466       7.37218039      -0.67500000
P        7.22775373       4.57390528       7.22775357      -0.67500000
P       10.31326446       4.42948021      10.31326422      -0.67500000
In       5.90083833      -0.00000673       5.90083820       0.67500000
In       8.83965836      -0.00415771       8.83965821       0.67500000
In       5.94441217       3.01853508       8.78312878       0.67500000
In       8.78312896       3.01853512       5.94441203       0.67500000
P        7.22775374       7.22775373       4.57390524      -0.67500000
P       10.31326817       7.37218052       1.48839464      -0.67500000
P        7.37218054      10.31326816       1.48839460      -0.67500000
P       10.31326446      10.31326441       4.42948014      -0.67500000
In       5.90083833       5.90083830      -0.00000674       0.67500000
In       8.78312894       5.94441214       3.01853509       0.67500000
In       5.94441217       8.78312894       3.01853503       0.67500000
In       8.83965836       8.83965834      -0.00415771       0.67500000
P        7.37023308       7.37023297      10.30234311      -0.67500000
P       10.30234338       7.37023298       7.37023285      -0.67500000
P        7.37023308      10.30234329       7.37023284      -0.67500000
P       10.32422185      10.32422170      10.32422152      -0.67500000
In       8.78312433       5.85724850       8.78312412       0.67500000
In       5.85724856       8.78312411       8.78312396       0.67500000
In       8.78312435       8.78312429       5.85724840       0.67500000
63
Lattice="11.8016818 -7.6e-06 -7.6e-06 -7.6e-06 11.8016818 -7.8e-06 -7.6e-06 -7.8e-06 11.8016816" Properties=species:S:1:pos:R:3:mulliken_charges:R:1 virial="-0.001343979365248383 3.847269175329341e-05 3.847269175329341e-05 3.847269175329341e-05 -0.001345261788306826 3.847269175329341e-05 3.847269175329341e-05 3.847269175329341e-05 -0.0013426969421899398" fermi_energy=3.4539138232004998 core_to_fermi_energy=15.43004959127955 config_type=Accurate_Bulk energy=-212.87443993727175 pbc="T T T"
P        1.46587537       1.46587530       4.43758900      -0.67500000
P        4.45494952       1.44812901       1.41271278      -0.67500000
P        1.44812901       4.45494952       1.41271273      -0.67500000
P        4.36354456       4.36354458       4.23718585      -0.67500000
In      -0.02218725      -0.02218729      -0.01416453       0.67500000
In       2.97190539       0.03735059       2.93954694       0.67500000
In       0.03735067       2.97190532       2.93954691       0.67500000
In       2.98672484       2.98672484      -0.01833562       0.67500000
P        1.49198643       1.49198627      10.34271481      -0.67500000
P        4.53225107       1.61159977       7.33197672      -0.67500000
P        1.61159987       4.53225096       7.33197671      -0.67500000
P        4.45049568       4.45049554      10.25618100      -0.67500000
In      -0.03679895      -0.03679910       5.89329929       0.67500000
In       3.03509348       0.13576901       8.80180383       0.67500000
In       0.13576914       3.03509332       8.80180380       0.67500000
In       2.99957788       2.99957781       5.83224401       0.67500000
P        1.54549314       7.41401308       4.46524154      -0.67500000
P        4.49277708       7.42170349       1.51606347      -0.67500000
P        1.49713065      10.34914091       1.46949882      -0.67500000
P        4.45087505      10.30740348       4.36438353      -0.67500000
In      -0.03487519       5.93753319      -0.02947994       0.67500000
In       2.92859852       5.94155645       2.87968700       0.67500000
In       0.03634984       8.85071219       2.96861314       0.67500000
In       2.99328062       8.86313752       0.01359867       0.67500000
P        1.53571978       7.38938514      10.31394592      -0.67500000
P        4.66191473       7.38955318       7.24347078      -0.67500000
P        1.51099533      10.38844735       7.40707894      -0.67500000
P        4.42391445      10.35535583      10.29366664      -0.67500000
In      -0.01394909       5.88754476       5.84775921       0.67500000
In       3.13406066       6.06244954       8.74944634       0.67500000
In       0.04860059       8.87162266       8.86028286       0.67500000
In       3.04794449       8.91020280       5.96790068       0.67500000
P        7.41401312       1.54549317       4.46524161      -0.67500000
P       10.34914097       1.49713066       1.46949894      -0.67500000
P        7.42170350       4.49277711       1.51606355      -0.67500000
P       10.30740356       4.45087499       4.36438366      -0.67500000
In       5.93753318      -0.03487525      -0.02947984       0.67500000
In       8.85071226       0.03634988       2.96861327       0.67500000
In       5.94155644       2.92859854       2.87968705       0.67500000
In       8.86313756       2.99328066       0.01359879       0.67500000
P        7.38938535       1.53571955      10.31394610      -0.67500000
P       10.38844751       1.51099518       7.40707909      -0.67500000
P        7.38955345       4.66191438       7.24347112      -0.67500000
P       10.35535602       4.42391433      10.29366678      -0.67500000
In       5.88754487      -0.01394921       5.84775926       0.67500000
In       8.87162287       0.04860041       8.86028301       0.67500000
In       6.06244967       3.13406034       8.74944657       0.67500000
In       8.91020297       3.04794434       5.96790080       0.67500000
P        7.00424990       7.00424988       4.95195232      -0.67500000
P       10.29537567       7.35139146       1.57297099      -0.67500000
P        7.35139150      10.29537570       1.57297095      -0.67500000
P       10.27140582      10.27140581       4.42230812      -0.67500000
In       5.88281520       5.88281520       0.01208251       0.67500000
In       8.64283100       6.05878521       3.19775377       0.67500000
In       6.05878525       8.64283095       3.19775366       0.67500000
In       8.83141765       8.83141765       0.09925597       0.67500000
P        7.38506004       7.38505995      10.35222618      -0.67500000
P       10.38929930       7.41672136       7.34873479      -0.67500000
P        7.41672148      10.38929923       7.34873473      -0.67500000
P       10.29740811      10.29740792      10.33087174      -0.67500000
In       8.91090090       5.96039924       8.83130153       0.67500000
In       5.96039934       8.91090074       8.83130136       0.67500000
In       8.72585425       8.72585415       5.87448837       0.67500000
63
Lattice="11.8016818 -7.6e-06 -7.6e-06 -7.6e-06 11.8016818 -7.8e-06 -7.6e-06 -7.8e-06 11.8016816" Properties=species:S:1:pos:R:3:mulliken_charges:R:1 virial="-0.001343979365248383 3.847269175329341e-05 3.847269175329341e-05 3.847269175329341e-05 -0.001345261788306826 3.847269175329341e-05 3.847269175329341e-05 3.847269175329341e-05 -0.0013426969421899398" fermi_energy=3.4539138232004998 core_to_fermi_energy=15.43004959127955 config_type=Accurate_Bulk energy=-212.80573524532994 pbc="T T T"
P        1.49811641       1.49811629       4.50535501      -0.67500000
P        4.48177488       1.40728168       1.38258654      -0.67500000
P        1.40728166       4.48177487       1.38258648      -0.67500000
P        4.21295433       4.21295432       3.91981521      -0.67500000
In      -0.03681251      -0.03681250      -0.00339902       0.67500000
In       2.99436756       0.09627322       2.98552672       0.67500000
In       0.09627333       2.99436745       2.98552671       0.67500000
In       2.97652809       2.97652808       0.03344619       0.67500000
P        1.48833879       1.48833864      10.36557226      -0.67500000
P        4.54766547       1.64526638       7.33808512      -0.67500000
P        1.64526653       4.54766536       7.33808506      -0.67500000
P        4.43904300       4.43904284      10.31421533      -0.67500000
In      -0.04012867      -0.04012879       5.87590143       0.67500000
In       3.02740591       0.15853876       8.79455585       0.67500000
In       0.15853893       3.02740578       8.79455579       0.67500000
In       3.06536373       3.06536360       5.83397156       0.67500000
P        1.52227494       7.43058071       4.48014259      -0.67500000
P        4.49500559       7.47304084       1.50672119      -0.67500000
P        1.51765910      10.38902134       1.49717039      -0.67500000
P        4.43541185      10.31191082       4.39399829      -0.67500000
In      -0.06346491       5.94648126      -0.07560798       0.67500000
In       2.84835232       6.03968021       2.79334055       0.67500000
In       0.03081505       8.86244044       2.95357487       0.67500000
In       2.98267668       8.90590001      -0.00115206       0.67500000
P        1.52946148       7.41137172      10.31063557      -0.67500000
P        4.67122750       7.36728814       7.26389687      -0.67500000
P        1.50425591      10.39828059       7.40390497      -0.67500000
P        4.42315970      10.34845971      10.25090319      -0.67500000
In      -0.02222814       5.88431235       5.86939370       0.67500000
In       3.14419835       6.06521529       8.79725613       0.67500000
In       0.03656685       8.88176000       8.84927774       0.67500000
In       3.04783699       8.89562421       5.99986447       0.67500000
P        7.43058075       1.52227493       4.48014269      -0.67500000
P       10.38902135       1.51765912       1.49717053      -0.67500000
P        7.47304084       4.49500563       1.50672124      -0.67500000
P       10.31191094       4.43541177       4.39399841      -0.67500000
In       5.94648124      -0.06346493      -0.07560788       0.67500000
In       8.86244050       0.03081505       2.95357502       0.67500000
In       6.03968024       2.84835234       2.79334060       0.67500000
In       8.90590003       2.98267672      -0.00115197       0.67500000
P        7.41137190       1.52946129      10.31063570      -0.67500000
P       10.39828072       1.50425579       7.40390512      -0.67500000
P        7.36728833       4.67122728       7.26389704      -0.67500000
P       10.34845989       4.42315957      10.25090329      -0.67500000
In       5.88431245      -0.02222827       5.86939376       0.67500000
In       8.88176017       0.03656668       8.84927787       0.67500000
In       6.06521545       3.14419810       8.79725624       0.67500000
In       8.89562436       3.04783686       5.99986457       0.67500000
P        7.00762039       7.00762030       4.96082850      -0.67500000
P       10.29237996       7.33666351       1.57996634      -0.67500000
P        7.33666352      10.29237999       1.57996630      -0.67500000
P       10.26601049      10.26601045       4.41382551      -0.67500000
In       5.87545967       5.87545969       0.05006022       0.67500000
In       8.65676181       6.04756111       3.23343270       0.67500000
In       6.04756121       8.65676169       3.23343263       0.67500000
In       8.81832510       8.81832512       0.12399186       0.67500000
P        7.37438148       7.37438137      10.38349943      -0.67500000
P       10.37713824       7.42103579       7.34720552      -0.67500000
P        7.42103590      10.37713815       7.34720544      -0.67500000
P       10.28196355      10.28196340      10.33436644      -0.67500000
In       8.88519721       5.97377619       8.83012931       0.67500000
In       5.97377632       8.88519707       8.83012920       0.67500000
In       8.72303887       8.72303875       5.86475019       0.67500000
63
Lattice="11.8016818 -7.6e-06 -7.6e-06 -7.6e-06 11.8016818 -7.8e-06 -7.6e-06 -7.8e-06 11.8016816" Properties=species:S:1:pos:R:3:mulliken_charges:R:1 virial="-0.001343979365248383 3.847269175329341e-05 3.847269175329341e-05 3.847269175329341e-05 -0.001345261788306826 3.847269175329341e-05 3.847269175329341e-05 3.847269175329341e-05 -0.0013426969421899398" fermi_energy=3.4539138232004998 core_to_fermi_energy=15.43004959127955 config_type=Accurate_Bulk energy=-212.62403331204968 pbc="T T T"
P        1.57961099       1.57961088       4.59777455      -0.67500000
P        4.48094548       1.38305380       1.37144058      -0.67500000
P        1.38305379       4.48094547       1.37144053      -0.67500000
P        4.23018178       4.23018174       3.69138798      -0.67500000
In      -0.03943177      -0.03943175       0.01977619       0.67500000
In       2.99492434       0.14493598       3.03843921       0.67500000
In       0.14493609       2.99492422       3.03843920       0.67500000
In       2.96504016       2.96504016       0.03660877       0.67500000
P        1.47614765       1.47614750      10.36569309      -0.67500000
P        4.50985245       1.66946462       7.33577344      -0.67500000
P        1.66946477       4.50985234       7.33577338      -0.67500000
P        4.43738084       4.43738068      10.35075375      -0.67500000
In      -0.01292967      -0.01292980       5.86985936       0.67500000
In       3.00993686       0.13977814       8.79823865       0.67500000
In       0.13977833       3.00993671       8.79823857       0.67500000
In       3.25475756       3.25475742       5.75811853       0.67500000
P        1.50051541       7.43004719       4.47589419      -0.67500000
P        4.48819349       7.51061385       1.48998495      -0.67500000
P        1.52857206      10.40527127       1.52428131      -0.67500000
P        4.43367132      10.33065280       4.42104581      -0.67500000
In      -0.08258859       5.95423082      -0.07933004       0.67500000
In       2.80135615       6.09924687       2.72252935       0.67500000
In       0.01162907       8.87028329       2.95413527       0.67500000
In       2.96991448       8.92754655      -0.01798484       0.67500000
P        1.51600122       7.41320332      10.30821939      -0.67500000
P        4.63456582       7.35259938       7.28105232      -0.67500000
P        1.49384770      10.39390706       7.39458783      -0.67500000
P        4.43058122      10.34154788      10.23659181      -0.67500000
In      -0.00271819       5.87749641       5.91030307       0.67500000
In       3.11143613       6.03553332       8.82190510       0.67500000
In       0.02059031       8.88055954       8.84099471       0.67500000
In       3.02863609       8.89254112       5.98958553       0.67500000
P        7.43004723       1.50051540       4.47589430      -0.67500000
P       10.40527126       1.52857209       1.52428146      -0.67500000
P        7.51061385       4.48819352       1.48998499      -0.67500000
P       10.33065293       4.43367124       4.42104594      -0.67500000
In       5.95423080      -0.08258861      -0.07932995       0.67500000
In       8.87028333       0.01162907       2.95413544       0.67500000
In       6.09924692       2.80135613       2.72252940       0.67500000
In       8.92754655       2.96991452      -0.01798476       0.67500000
P        7.41320350       1.51600104      10.30821952      -0.67500000
P       10.39390720       1.49384759       7.39458797      -0.67500000
P        7.35259954       4.63456563       7.28105246      -0.67500000
P       10.34154807       4.43058108      10.23659190      -0.67500000
In       5.87749651      -0.00271832       5.91030313       0.67500000
In       8.88055970       0.02059015       8.84099483       0.67500000
In       6.03553348       3.11143591       8.82190519       0.67500000
In       8.89254128       3.02863597       5.98958563       0.67500000
P        6.97762972       6.97762962       4.97218375      -0.67500000
P       10.27156558       7.32888562       1.59402159      -0.67500000
P        7.32888562      10.27156561       1.59402156      -0.67500000
P       10.26991293      10.26991290       4.43434889      -0.67500000
In       5.87529126       5.87529128       0.08186993       0.67500000
In       8.65455839       6.02309126       3.26357737       0.67500000
In       6.02309137       8.65455826       3.26357731       0.67500000
In       8.81579745       8.81579747       0.12262635       0.67500000
P        7.36599923       7.36599911      10.39180739      -0.67500000
P       10.36082442       7.41880356       7.34159088      -0.67500000
P        7.41880367      10.36082432       7.34159079      -0.67500000
P       10.28430668      10.28430655      10.33694991      -0.67500000
In       8.86135830       5.97053083       8.81967865       0.67500000
In       5.97053097       8.86135816       8.81967854       0.67500000
In       8.69742868       8.69742855       5.84294665       0.67500000
63
Lattice="11.8016818 -7.6e-06 -7.6e-06 -7.6e-06 11.8016818 -7.8e-06 -7.6e-06 -7.8e-06 11.8016816" Properties=species:S:1:pos:R:3:mulliken_charges:R:1 virial="-0.001343979365248383 3.847269175329341e-05 3.847269175329341e-05 3.847269175329341e-05 -0.001345261788306826 3.847269175329341e-05 3.847269175329341e-05 3.847269175329341e-05 -0.0013426969421899398" fermi_energy=3.4539138232004998 core_to_fermi_energy=15.43004959127955 config_type=Accurate_Bulk energy=-212.3246440091285 pbc="T T T"
P        1.68464211       1.68464200       4.74495426      -0.67500000
P        4.48192353       1.35527846       1.36569380      -0.67500000
P        1.35527845       4.48192351       1.36569375      -0.67500000
P        4.18495927       4.18495920       3.43713700      -0.67500000
In      -0.03533836      -0.03533834       0.03626931       0.67500000
In       2.98935321       0.22086299       3.10914146       0.67500000
In       0.22086310       2.98935311       3.10914144       0.67500000
In       2.95492961       2.95492961       0.05019442       0.67500000
P        1.46817216       1.46817200      10.36302480      -0.67500000
P        4.42458879       1.69062986       7.32201588      -0.67500000
P        1.69063001       4.42458867       7.32201581      -0.67500000
P        4.42927832       4.42927817      10.38203825      -0.67500000
In       0.02003831       0.02003818       5.87626330       0.67500000
In       2.97842630       0.09961202       8.80541072       0.67500000
In       0.09961220       2.97842615       8.80541064       0.67500000
In       3.53958524       3.53958509       5.72387751       0.67500000
P        1.48335057       7.42169791       4.46871238      -0.67500000
P        4.48271980       7.53569546       1.47368632      -0.67500000
P        1.54291507      10.43030569       1.55586700      -0.67500000
P        4.43123268      10.35172511       4.43574380      -0.67500000
In      -0.10287896       5.96303348      -0.08110397       0.67500000
In       2.76323177       6.15015608       2.65516278       0.67500000
In      -0.00126502       8.88905296       2.96459751       0.67500000
In       2.95781598       8.94435553      -0.03125786       0.67500000
P        1.50959075       7.40366566      10.29653809      -0.67500000
P        4.61616853       7.31616766       7.28135726      -0.67500000
P        1.48943179      10.37303740       7.37751639      -0.67500000
P        4.43936803      10.32726779      10.22317387      -0.67500000
In       0.03381053       5.84945462       5.94674446       0.67500000
In       3.06540445       5.98717543       8.82476513       0.67500000
In       0.01189732       8.88187684       8.83054707       0.67500000
In       3.02628234       8.87927783       5.96847646       0.67500000
P        7.42169795       1.48335056       4.46871251      -0.67500000
P       10.43030568       1.54291511       1.55586714      -0.67500000
P        7.53569546       4.48271982       1.47368637      -0.67500000
P       10.35172523       4.43123260       4.43574392      -0.67500000
In       5.96303346      -0.10287897      -0.08110388       0.67500000
In       8.88905299      -0.00126502       2.96459768       0.67500000
In       6.15015616       2.76323171       2.65516282       0.67500000
In       8.94435553       2.95781602      -0.03125778       0.67500000
P        7.40366583       1.50959058      10.29653821      -0.67500000
P       10.37303753       1.48943167       7.37751652      -0.67500000
P        7.31616782       4.61616836       7.28135738      -0.67500000
P       10.32726798       4.43936789      10.22317397      -0.67500000
In       5.84945471       0.03381039       5.94674452       0.67500000
In       8.88187699       0.01189716       8.83054718       0.67500000
In       5.98717558       3.06540426       8.82476524       0.67500000
In       8.87927798       3.02628223       5.96847656       0.67500000
P        6.96441050       6.96441039       4.98159297      -0.67500000
P       10.25404428       7.32502487       1.61716070      -0.67500000
P        7.32502487      10.25404431       1.61716066      -0.67500000
P       10.27515239      10.27515235       4.46748062      -0.67500000
In       5.87539924       5.87539926       0.09428784       0.67500000
In       8.64951934       5.99140342       3.29025222       0.67500000
In       5.99140353       8.64951921       3.29025217       0.67500000
In       8.81804033       8.81804036       0.12783222       0.67500000
P        7.36296572       7.36296559      10.39900516      -0.67500000
P       10.35868657       7.40496482       7.33428211      -0.67500000
P        7.40496493      10.35868646       7.33428202      -0.67500000
P       10.28786314      10.28786301      10.33832276      -0.67500000
In       8.83237764       5.96889912       8.80518366       0.67500000
In       5.96889926       8.83237749       8.80518356       0.67500000
In       8.67819577       8.67819563       5.84420252       0.67500000
63
Lattice="11.8016818 -7.6e-06 -7.6e-06 -7.6e-06 11.8016818 -7.8e-06 -7.6e-06 -7.8e-06 11.8016816" Properties=species:S:1:pos:R:3:mulliken_charges:R:1 virial="-0.001343979365248383 3.847269175329341e-05 3.847269175329341e-05 3.847269175329341e-05 -0.001345261788306826 3.847269175329341e-05 3.847269175329341e-05 3.847269175329341e-05 -0.0013426969421899398" fermi_energy=3.4539138232004998 core_to_fermi_energy=15.43004959127955 config_type=Accurate_Bulk energy=-212.09478585326661 pbc="T T T"
P        1.73783742       1.73783732       4.86290741      -0.67500000
P        4.48217629       1.32855844       1.36687788      -0.67500000
P        1.32855843       4.48217627       1.36687783      -0.67500000
P        4.18180088       4.18180080       3.34382096      -0.67500000
In      -0.02555671      -0.02555668       0.06501781       0.67500000
In       2.99993288       0.27484264       3.17924175       0.67500000
In       0.27484275       2.99993278       3.17924173       0.67500000
In       2.93738875       2.93738873       0.08708876       0.67500000
P        1.46448890       1.46448873      10.36953923      -0.67500000
P        4.29482122       1.72618716       7.27535935      -0.67500000
P        1.72618731       4.29482107       7.27535927      -0.67500000
P        4.41781879       4.41781865      10.41104231      -0.67500000
In       0.04696255       0.04696242       5.89048414       0.67500000
In       2.94012883       0.07071170       8.80010318       0.67500000
In       0.07071187       2.94012867       8.80010311       0.67500000
In       3.94892131       3.94892118       5.77675663       0.67500000
P        1.47347702       7.39904925       4.45042016      -0.67500000
P        4.46316559       7.54558904       1.45315944      -0.67500000
P        1.55858042      10.45005037       1.59207559      -0.67500000
P        4.42719085      10.34997333       4.43670534      -0.67500000
In      -0.11812068       5.96926864      -0.08735223       0.67500000
In       2.74710262       6.15724279       2.60789810       0.67500000
In      -0.01228371       8.90090372       2.97759677       0.67500000
In       2.94018725       8.95661427      -0.04364995       0.67500000
P        1.52059343       7.37590860      10.26788841      -0.67500000
P        4.63849229       7.27748809       7.26914727      -0.67500000
P        1.49117727      10.33208609       7.35920083      -0.67500000
P        4.43961141      10.31641528      10.20868345      -0.67500000
In       0.08413037       5.78538280       5.95035289       0.67500000
In       3.04094999       5.90764416       8.78440755       0.67500000
In       0.00106324       8.87717991       8.82724059       0.67500000
In       3.04245759       8.83692008       5.94630658       0.67500000
P        7.39904928       1.47347701       4.45042030      -0.67500000
P       10.45005036       1.55858046       1.59207574      -0.67500000
P        7.54558903       4.46316560       1.45315949      -0.67500000
P       10.34997346       4.42719077       4.43670546      -0.67500000
In       5.96926863      -0.11812069      -0.08735214       0.67500000
In       8.90090374      -0.01228371       2.97759695       0.67500000
In       6.15724287       2.74710255       2.60789815       0.67500000
In       8.95661427       2.94018729      -0.04364986       0.67500000
P        7.37590877       1.52059326      10.26788853      -0.67500000
P       10.33208621       1.49117715       7.35920096      -0.67500000
P        7.27748827       4.63849213       7.26914739      -0.67500000
P       10.31641548       4.43961127      10.20868356      -0.67500000
In       5.78538289       0.08413023       5.95035295       0.67500000
In       8.87718005       0.00106309       8.82724070       0.67500000
In       5.90764433       3.04094982       8.78440766       0.67500000
In       8.83692024       3.04245749       5.94630667       0.67500000
P        6.97448283       6.97448271       5.00064146      -0.67500000
P       10.23393141       7.31306932       1.64282892      -0.67500000
P        7.31306931      10.23393144       1.64282889      -0.67500000
P       10.28455245      10.28455241       4.49526608      -0.67500000
In       5.88493929       5.88493931       0.10565396       0.67500000
In       8.62294362       5.94506426       3.30044700       0.67500000
In       5.94506437       8.62294349       3.30044695       0.67500000
In       8.81945644       8.81945647       0.14288605       0.67500000
P        7.36388426       7.36388413      10.40630347      -0.67500000
P       10.37465920       7.37602113       7.32202342      -0.67500000
P        7.37602123      10.37465908       7.32202332      -0.67500000
P       10.29116959      10.29116947      10.34921044      -0.67500000
In       8.81847731       5.97427427       8.79697422       0.67500000
In       5.97427441       8.81847715       8.79697412       0.67500000
In       8.68584694       8.68584680       5.87132566       0.67500000
63