63
Lattice="11.8016818 -7.6e-06 -7.6e-06 -7.6e-06 11.8016818 -7.8e-06 -7.6e-06 -7.8e-06 11.8016816" Properties=species:S:1:pos:R:3:mulliken_charges:R:1 virial="-0.001343979365248383 3.847269175329341e-05 3.847269175329341e-05 3.847269175329341e-05 -0.001345261788306826 3.847269175329341e-05 3.847269175329341e-05 3.847269175329341e-05 -0.0013426969421899398" fermi_energy=3.4539138232004998 core_to_fermi_energy=15.43004959127955 config_type=Accurate_Bulk energy=-212.86956230536583 pbc="T T T"
P        1.48840455       1.48840450       4.42948893      -0.67500000
P        4.42948902       1.48840456       1.48840453      -0.67500000
P        1.48840456       4.42948900       1.48840449      -0.67500000
P        4.57392911       4.57392911       4.57392907      -0.67500000
In       0.00000193       0.00000188       0.00000188       0.67500000
In       2.96201807      -0.00415182       2.96201800       0.67500000
In      -0.00415177       2.96201799       2.96201793       0.67500000
In       2.96201808       2.96201806      -0.00415181       0.67500000
P        1.47743912       1.47743897      10.32423085      -0.67500000
P        4.43142945       1.49931854       7.37023804      -0.67500000
P        1.49931863       4.43142935       7.37023802      -0.67500000
P        4.43142848       4.43142837      10.30234691      -0.67500000
In      -0.00000172      -0.00000187       5.90084116       0.67500000
In       2.96201426       0.00413852       8.83966096       0.67500000
In       0.00413865       2.96201409       8.83966091       0.67500000
In       3.01854704       3.01854698       5.85725187       0.67500000
P        1.49931863       7.37023815       4.43142928      -0.67500000
P        4.43142945       7.37023817       1.49931852      -0.67500000
P        1.47743912      10.32423103       1.47743895      -0.67500000
P        4.43142848      10.30234710       4.43142829      -0.67500000
In      -0.00000172       5.90084126      -0.00000187       0.67500000
In       3.01854706       5.85725196       3.01854694       0.67500000
In       0.00413865       8.83966105       2.96201403       0.67500000
In       2.96201427       8.83966110       0.00413852       0.67500000
P        1.48839480       7.37218040      10.31326785      -0.67500000
P        4.57390559       7.22775342       7.22775326      -0.67500000
P        1.48839479      10.31326804       7.37218027      -0.67500000
P        4.42948035      10.31326428      10.31326410      -0.67500000
In      -0.00000661       5.90083820       5.90083810       0.67500000
In       3.01853530       5.94441210       8.78312863       0.67500000
In      -0.00415759       8.83965820       8.83965806       0.67500000
In       3.01853528       8.78312880       5.94441199       0.67500000
P        7.37023820       1.49931859       4.43142934      -0.67500000
P       10.32423105       1.47743909       1.47743907      -0.67500000
P        7.37023820       4.43142942       1.49931857      -0.67500000
P       10.30234714       4.43142844       4.43142836      -0.67500000
In       5.90084127      -0.00000177      -0.00000177       0.67500000
In       8.83966113       0.00413860       2.96201417       0.67500000
In       5.85725198       3.01854705       3.01854700       0.67500000
In       8.83966112       2.96201424       0.00413859       0.67500000
P        7.37218054       1.48839462      10.31326798      -0.67500000
P       10.31326817       1.48839466       7.37218039      -0.67500000
P        7.22775373       4.57390528       7.22775357      -0.67500000
P       10.31326446       4.42948021      10.31326422      -0.67500000
In       5.90083833      -0.00000673       5.90083820       0.67500000
In       8.83965836      -0.00415771       8.83965821       0.67500000
In       5.94441217       3.01853508       8.78312878       0.67500000
In       8.78312896       3.01853512       5.94441203       0.67500000
P        7.22775374       7.22775373       4.57390524      -0.67500000
P       10.31326817       7.37218052       1.48839464      -0.67500000
P        7.37218054      10.31326816       1.48839460      -0.67500000
P       10.31326446      10.31326441       4.42948014      -0.67500000
In       5.90083833       5.90083830      -0.00000674       0.67500000
In       8.78312894       5.94441214       3.01853509       0.67500000
In       5.94441217       8.78312894       3.01853503       0.67500000
In       8.83965836       8.83965834      -0.00415771       0.67500000
P        7.37023308       7.37023297      10.30234311      -0.67500000
P       10.30234338       7.37023298       7.37023285      -0.67500000
P        7.37023308      10.30234329       7.37023284      -0.67500000
P       10.32422185      10.32422170      10.32422152      -0.67500000
In       8.78312433       5.85724850       8.78312412       0.67500000
In       5.85724856       8.78312411       8.78312396       0.67500000
In       8.78312435       8.78312429       5.85724840       0.67500000
63
Lattice="11.8016818 -7.6e-06 -7.6e-06 -7.6e-06 11.8016818 -7.8e-06 -7.6e-06 -7.8e-06 11.8016816" Properties=species:S:1:pos:R:3:mulliken_charges:R:1 virial="-0.001343979365248383 3.847269175329341e-05 3.847269175329341e-05 3.847269175329341e-05 -0.001345261788306826 3.847269175329341e-05 3.847269175329341e-05 3.847269175329341e-05 -0.0013426969421899398" fermi_energy=3.4539138232004998 core_to_fermi_energy=15.43004959127955 config_type=Accurate_Bulk energy=-212.8697284423154 pbc="T T T"
P        1.49454958       1.49454964       4.43037955      -0.67500000
P        4.43037981       1.49454966       1.49454964      -0.67500000
P        1.49454959       4.43037963       1.49454962      -0.67500000
P        4.60207818       4.60207866       4.60207863      -0.67500000
In       0.00514418       0.00514390       0.00514389       0.67500000
In       2.96564953      -0.00394829       2.96564941       0.67500000
In      -0.00394856       2.96564950       2.96564945       0.67500000
In       2.96564952       2.96564946      -0.00394829       0.67500000
P        1.47993818       1.47993797      10.32538288      -0.67500000
P        4.42683120       1.49690818       7.36966562      -0.67500000
P        1.49690823       4.42683100       7.36966581      -0.67500000
P        4.43499900       4.43499901      10.30360287      -0.67500000
In       0.00473383       0.00473344       5.90154326       0.67500000
In       2.96143360       0.00138876       8.84276209       0.67500000
In       0.00138878       2.96143327       8.84276214       0.67500000
In       3.03086671       3.03086679       5.85143947       0.67500000
P        1.49690823       7.36966594       4.42683091      -0.67500000
P        4.42683119       7.36966574       1.49690816      -0.67500000
P        1.47993818      10.32538306       1.47993794      -0.67500000
P        4.43499900      10.30360305       4.43499894      -0.67500000
In       0.00473383       5.90154336       0.00473343       0.67500000
In       3.03086674       5.85143955       3.03086677       0.67500000
In       0.00138877       8.84276230       2.96143320       0.67500000
In       2.96143359       8.84276224       0.00138877       0.67500000
P        1.48462328       7.37469824      10.31441762      -0.67500000
P        4.55315168       7.23179574       7.23179558      -0.67500000
P        1.48462327      10.31441780       7.37469812      -0.67500000
P        4.43302783      10.31473178      10.31473161      -0.67500000
In       0.00336117       5.90495172       5.90495161       0.67500000
In       3.00727883       5.93874677       8.78835035       0.67500000
In      -0.01090222       8.83891825       8.83891811       0.67500000
In       3.00727881       8.78835052       5.93874666       0.67500000
P        7.36966582       1.49690847       4.42683100      -0.67500000
P       10.32538320       1.47993801       1.47993798      -0.67500000
P        7.36966581       4.42683109       1.49690846      -0.67500000
P       10.30360279       4.43499911       4.43499904      -0.67500000
In       5.90154340       0.00473354       0.00473354       0.67500000
In       8.84276231       0.00138901       2.96143345       0.67500000
In       5.85143918       3.03086715       3.03086710       0.67500000
In       8.84276230       2.96143351       0.00138902       0.67500000
P        7.37469842       1.48462296      10.31441799      -0.67500000
P       10.31441810       1.48462297       7.37469814      -0.67500000
P        7.23179677       4.55315068       7.23179706      -0.67500000
P       10.31473211       4.43302763      10.31473199      -0.67500000
In       5.90495207       0.00336089       5.90495170       0.67500000
In       8.83891857      -0.01090221       8.83891837       0.67500000
In       5.93874659       3.00727826       8.78835102       0.67500000
In       8.78835080       3.00727852       5.93874680       0.67500000
P        7.23179678       7.23179722       4.55315064      -0.67500000
P       10.31441809       7.37469826       1.48462295      -0.67500000
P        7.37469841      10.31441816       1.48462293      -0.67500000
P       10.31473212      10.31473217       4.43302755      -0.67500000
In       5.90495206       5.90495181       0.00336088       0.67500000
In       8.78835078       5.93874691       3.00727850       0.67500000
In       5.93874659       8.78835117       3.00727822       0.67500000
In       8.83891856       8.83891851      -0.01090220       0.67500000
P        7.36919324       7.36919326      10.29499769      -0.67500000
P       10.29499792       7.36919306       7.36919293      -0.67500000
P        7.36919324      10.29499788       7.36919314      -0.67500000
P       10.32797111      10.32797092      10.32797075      -0.67500000
In       8.77900233       5.85004513       8.77900227       0.67500000
In       5.85004491       8.77900171       8.77900156       0.67500000
In       8.77900235       8.77900245       5.85004505       0.67500000
63
Lattice="11.8016818 -7.6e-06 -7.6e-06 -7.6e-06 11.8016818 -7.8e-06 -7.6e-06 -7.8e-06 11.8016816" Properties=species:S:1:pos:R:3:mulliken_charges:R:1 virial="-0.001343979365248383 3.847269175329341e-05 3.847269175329341e-05 3.847269175329341e-05 -0.001345261788306826 3.847269175329341e-05 3.847269175329341e-05 3.847269175329341e-05 -0.0013426969421899398" fermi_energy=3.4539138232004998 core_to_fermi_energy=15.43004959127955 config_type=Accurate_Bulk energy=-212.87160103902323 pbc="T T T"
P        1.51393939       1.51393957       4.43728868      -0.67500000
P        4.43728914       1.51393952       1.51393950      -0.67500000
P        1.51393940       4.43728876       1.51393955      -0.67500000
P        4.68457784       4.68457868       4.68457864      -0.67500000
In       0.01776112       0.01776069       0.01776066       0.67500000
In       2.97638691       0.00242711       2.97638672       0.67500000
In       0.00242647       2.97638688       2.97638683       0.67500000
In       2.97638691       2.97638677       0.00242712       0.67500000
P        1.48823798       1.48823771      10.33233348      -0.67500000
P        4.41741408       1.49259709       7.36615711      -0.67500000
P        1.49259712       4.41741379       7.36615743      -0.67500000
P        4.44076729       4.44076743      10.30172891      -0.67500000
In       0.01733840       0.01733776       5.90443700       0.67500000
In       2.96313514       0.00128543       8.85216688       0.67500000
In       0.00128538       2.96313465       8.85216698       0.67500000
In       3.07057685       3.07057700       5.83608218       0.67500000
P        1.49259712       7.36615757       4.41741368      -0.67500000
P        4.41741407       7.36615724       1.49259708      -0.67500000
P        1.48823797      10.33233368       1.48823767      -0.67500000
P        4.44076729      10.30172909       4.44076735      -0.67500000
In       0.01733840       5.90443710       0.01733776       0.67500000
In       3.07057688       5.83608225       3.07057697       0.67500000
In       0.00128537       8.85216714       2.96313457       0.67500000
In       2.96313512       8.85216703       0.00128544       0.67500000
P        1.47342236       7.38708182      10.32268877      -0.67500000
P        4.48921958       7.25168400       7.25168385      -0.67500000
P        1.47342236      10.32268895       7.38708170      -0.67500000
P        4.44118278      10.32020033      10.32020017      -0.67500000
In       0.00962005       5.91034444       5.91034430       0.67500000
In       2.96981738       5.92884886       8.80633312       0.67500000
In      -0.03234546       8.83335175       8.83335160       0.67500000
In       2.96981736       8.80633329       5.92884875       0.67500000
P        7.36615736       1.49259757       4.41741380      -0.67500000
P       10.33233384       1.48823766       1.48823764      -0.67500000
P        7.36615734       4.41741390       1.49259755      -0.67500000
P       10.30172855       4.44076753       4.44076747      -0.67500000
In       5.90443722       0.01733786       0.01733786       0.67500000
In       8.85216709       0.00128576       2.96313491       0.67500000
In       5.83608161       3.07057758       3.07057752       0.67500000
In       8.85216709       2.96313497       0.00128577       0.67500000
P        7.38708194       1.47342200      10.32268929      -0.67500000
P       10.32268943       1.47342190       7.38708162      -0.67500000
P        7.25168561       4.48921812       7.25168618      -0.67500000
P       10.32020080       4.44118248      10.32020072      -0.67500000
In       5.91034497       0.00961966       5.91034441       0.67500000
In       8.83335218      -0.03234522       8.83335200       0.67500000
In       5.92884849       2.96981670       8.80633410       0.67500000
In       8.80633363       2.96981698       5.92884902       0.67500000
P        7.25168560       7.25168633       4.48921809      -0.67500000
P       10.32268942       7.38708173       1.47342188      -0.67500000
P        7.38708193      10.32268946       1.47342198      -0.67500000
P       10.32020080      10.32020089       4.44118241      -0.67500000
In       5.91034496       5.91034453       0.00961964       0.67500000
In       8.80633361       5.92884913       2.96981697       0.67500000
In       5.92884849       8.80633424       2.96981667       0.67500000
In       8.83335217       8.83335213      -0.03234521       0.67500000
P        7.36184668       7.36184680      10.27404040      -0.67500000
P       10.27404054       7.36184639       7.36184627      -0.67500000
P        7.36184668      10.27404060       7.36184668      -0.67500000
P       10.33626026      10.33626006      10.33625990      -0.67500000
In       8.77116501       5.83032655       8.77116510       0.67500000
In       5.83032617       8.77116411       8.77116396       0.67500000
In       8.77116502       8.77116527       5.83032648       0.67500000
63
Lattice="11.8016818 -7.6e-06 -7.6e-06 -7.6e-06 11.8016818 -7.8e-06 -7.6e-06 -7.8e-06 11.8016816" Properties=species:S:1:pos:R:3:mulliken_charges:R:1 virial="-0.001343979365248383 3.847269175329341e-05 3.847269175329341e-05 3.847269175329341e-05 -0.001345261788306826 3.847269175329341e-05 3.847269175329341e-05 3.847269175329341e-05 -0.0013426969421899398" fermi_energy=3.4539138232004998 core_to_fermi_energy=15.43004959127955 config_type=Accurate_Bulk energy=-212.87646725936025 pbc="T T T"
P        1.53181174       1.53181192       4.44650229      -0.67500000
P        4.44650272       1.53181186       1.53181184      -0.67500000
P        1.53181175       4.44650237       1.53181191      -0.67500000
P        4.76477044       4.76477113       4.76477111      -0.67500000
In       0.02256641       0.02256604       0.02256601       0.67500000
In       2.98099699       0.01232205       2.98099683       0.67500000
In       0.01232144       2.98099688       2.98099683       0.67500000
In       2.98099700       2.98099689       0.01232208       0.67500000
P        1.49217619       1.49217591      10.33661768      -0.67500000
P        4.40998165       1.49036885       7.36087921      -0.67500000
P        1.49036889       4.40998134       7.36087937      -0.67500000
P        4.43919291       4.43919302      10.29672443      -0.67500000
In       0.02546870       0.02546819       5.90423516       0.67500000
In       2.96391546       0.00310497       8.85734273       0.67500000
In       0.00310503       2.96391507       8.85734280       0.67500000
In       3.11071961       3.11071963       5.82333072       0.67500000
P        1.49036891       7.36087952       4.40998122      -0.67500000
P        4.40998163       7.36087934       1.49036884      -0.67500000
P        1.49217616      10.33661787       1.49217587      -0.67500000
P        4.43919291      10.29672461       4.43919295      -0.67500000
In       0.02546870       5.90423526       0.02546818       0.67500000
In       3.11071964       5.82333079       3.11071961       0.67500000
In       0.00310501       8.85734296       2.96391499       0.67500000
In       2.96391543       8.85734288       0.00310497       0.67500000
P        1.46166127       7.39817391      10.33055145      -0.67500000
P        4.43334593       7.27240632       7.27240618      -0.67500000
P        1.46166128      10.33055164       7.39817379      -0.67500000
P        4.44439139      10.32338582      10.32338565      -0.67500000
In       0.01283716       5.90801369       5.90801354       0.67500000
In       2.93451558       5.92423703       8.82213628       0.67500000
In      -0.05349462       8.82432321       8.82432305       0.67500000
In       2.93451557       8.82213644       5.92423693       0.67500000
P        7.36087941       1.49036926       4.40998135      -0.67500000
P       10.33661793       1.49217584       1.49217582      -0.67500000
P        7.36087939       4.40998145       1.49036922      -0.67500000
P       10.29672421       4.43919307       4.43919300      -0.67500000
In       5.90423536       0.02546826       0.02546825       0.67500000
In       8.85734290       0.00310523       2.96391526       0.67500000
In       5.82333027       3.11072017       3.11072011       0.67500000
In       8.85734290       2.96391531       0.00310525       0.67500000
P        7.39817400       1.46166100      10.33055186      -0.67500000
P       10.33055207       1.46166091       7.39817381      -0.67500000
P        7.27240772       4.43334488       7.27240800      -0.67500000
P       10.32338624       4.44439110      10.32338614      -0.67500000
In       5.90801417       0.01283686       5.90801367       0.67500000
In       8.82432355      -0.05349441       8.82432342       0.67500000
In       5.92423685       2.93451522       8.82213700       0.67500000
In       8.82213679       2.93451530       5.92423719       0.67500000
P        7.27240773       7.27240816       4.43334483      -0.67500000
P       10.33055206       7.39817391       1.46166089      -0.67500000
P        7.39817398      10.33055203       1.46166099      -0.67500000
P       10.32338625      10.32338631       4.44439103      -0.67500000
In       5.90801415       5.90801380       0.01283683       0.67500000
In       8.82213677       5.92423728       2.93451528       0.67500000
In       5.92423684       8.82213715       2.93451520       0.67500000
In       8.82432354       8.82432356      -0.05349438       0.67500000
P        7.35045105       7.35045113      10.25551430      -0.67500000
P       10.25551447       7.35045079       7.35045067      -0.67500000
P        7.35045104      10.25551449       7.35045101      -0.67500000
P       10.33799335      10.33799320      10.33799304      -0.67500000
In       8.76603977       5.81386588       8.76603980       0.67500000
In       5.81386557       8.76603899       8.76603883       0.67500000
In       8.76603979       8.76603997       5.81386581       0.67500000
63
Lattice="11.8016818 -7.6e-06 -7.6e-06 -7.6e-06 11.8016818 -7.8e-06 -7.6e-06 -7.8e-06 11.8016816" Properties=species:S:1:pos:R:3:mulliken_charges:R:1 virial="-0.001343979365248383 3.847269175329341e-05 3.847269175329341e-05 3.847269175329341e-05 -0.001345261788306826 3.847269175329341e-05 3.847269175329341e-05 3.847269175329341e-05 -0.0013426969421899398" fermi_energy=3.4539138232004998 core_to_fermi_energy=15.43004959127955 config_type=Accurate_Bulk energy=-212.883392598643 pbc="T T T"
P        1.55292310       1.55292320       4.46173914      -0.67500000
P        4.46173939       1.55292318       1.55292317      -0.67500000
P        1.55292310       4.46173920       1.55292320      -0.67500000
P        4.86379907       4.86379934       4.86379931      -0.67500000
In       0.02493887       0.02493865       0.02493860       0.67500000
In       2.98322094       0.02886388       2.98322088       0.67500000
In       0.02886354       2.98322079       2.98322076       0.67500000
In       2.98322097       2.98322095       0.02886392       0.67500000
P        1.49546377       1.49546356      10.33983293      -0.67500000
P        4.40198187       1.49154384       7.35582428      -0.67500000
P        1.49154394       4.40198161       7.35582430      -0.67500000
P        4.43586537       4.43586537      10.29656217      -0.67500000
In       0.03161906       0.03161877       5.90126322       0.67500000
In       2.96332022       0.00402318       8.86017990       0.67500000
In       0.00402329       2.96331994       8.86017989       0.67500000
In       3.16078184       3.16078173       5.81109871       0.67500000
P        1.49154396       7.35582446       4.40198148      -0.67500000
P        4.40198185       7.35582442       1.49154382      -0.67500000
P        1.49546373      10.33983312       1.49546350      -0.67500000
P        4.43586536      10.29656236       4.43586529      -0.67500000
In       0.03161906       5.90126331       0.03161877       0.67500000
In       3.16078189       5.81109877       3.16078170       0.67500000
In       0.00402327       8.86018004       2.96331986       0.67500000
In       2.96332020       8.86018005       0.00402317       0.67500000
P        1.45234158       7.40489928      10.33586852      -0.67500000
P        4.39698358       7.28187400       7.28187387      -0.67500000
P        1.45234159      10.33586870       7.40489917      -0.67500000
P        4.44696466      10.32293098      10.32293081      -0.67500000
In       0.02081686       5.90526003       5.90525987       0.67500000
In       2.90856017       5.91937436       8.83331141       0.67500000
In      -0.07217072       8.81523899       8.81523884       0.67500000
In       2.90856016       8.83331157       5.91937427       0.67500000
P        7.35582447       1.49154409       4.40198160      -0.67500000
P       10.33983311       1.49546351       1.49546349      -0.67500000
P        7.35582445       4.40198171       1.49154404      -0.67500000
P       10.29656223       4.43586538       4.43586532      -0.67500000
In       5.90126335       0.03161885       0.03161885       0.67500000
In       8.86018004       0.00402329       2.96332006       0.67500000
In       5.81109855       3.16078206       3.16078198       0.67500000
In       8.86018004       2.96332011       0.00402331       0.67500000
P        7.40489935       1.45234140      10.33586873      -0.67500000
P       10.33586895       1.45234137       7.40489924      -0.67500000
P        7.28187473       4.39698315       7.28187470      -0.67500000
P       10.32293128       4.44696444      10.32293109      -0.67500000
In       5.90526038       0.02081664       5.90526000       0.67500000
In       8.81523922      -0.07217066       8.81523911       0.67500000
In       5.91937437       2.90856003       8.83331174       0.67500000
In       8.83331180       2.90856003       5.91937443       0.67500000
P        7.28187476       7.28187486       4.39698308      -0.67500000
P       10.33586893       7.40489933       1.45234136      -0.67500000
P        7.40489932      10.33586891       1.45234138      -0.67500000
P       10.32293129      10.32293127       4.44696437      -0.67500000
In       5.90526036       5.90526015       0.02081660       0.67500000
In       8.83331179       5.91937451       2.90856001       0.67500000
In       5.91937435       8.83331189       2.90856000       0.67500000
In       8.81523922       8.81523926      -0.07217062       0.67500000
P        7.33891344       7.33891341      10.24036289      -0.67500000
P       10.24036313       7.33891322       7.33891311      -0.67500000
P        7.33891342      10.24036307       7.33891327      -0.67500000
P       10.33754065      10.33754052      10.33754036      -0.67500000
In       8.75816107       5.80157698       8.75816096       0.67500000
In       5.80157689       8.75816060       8.75816045       0.67500000
In       8.75816109       8.75816113       5.80157692       0.67500000
63
Lattice="11.8016818 -7.6e-06 -7.6e-06 -7.6e-06 11.8016818 -7.8e-06 -7.6e-06 -7.8e-06 11.8016816" Properties=species:S:1:pos:R:3:mulliken_charges:R:1 virial="-0.001343979365248383 3.847269175329341e-05 3.847269175329341e-05 3.847269175329341e-05 -0.001345261788306826 3.847269175329341e-05 3.847269175329341e-05 3.847269175329341e-05 -0.0013426969421899398" fermi_energy=3.4539138232004998 core_to_fermi_energy=15.43004959127955 config_type=Accurate_Bulk energy=-212.89199346931727 pbc="T T T"
P        1.57198525       1.57198534       4.47918415      -0.67500000
P        4.47918429       1.57198533       1.57198534      -0.67500000
P        1.57198525       4.47918420       1.57198535      -0.67500000
P        4.97810163       4.97810172       4.97810169      -0.67500000
In       0.02800010       0.02799993       0.02799988       0.67500000
In       2.98500967       0.04634209       2.98500968       0.67500000
In       0.04634185       2.98500953       2.98500952       0.67500000
In       2.98500972       2.98500975       0.04634215       0.67500000
P        1.49874129       1.49874111      10.34036203      -0.67500000
P        4.38882132       1.49549345       7.34773135      -0.67500000
P        1.49549360       4.38882107       7.34773131      -0.67500000
P        4.43481636       4.43481632      10.30204281      -0.67500000
In       0.03401449       0.03401429       5.89505951       0.67500000
In       2.96054010       0.00201750       8.85949695       0.67500000
In       0.00201764       2.96053987       8.85949690       0.67500000
In       3.21445252       3.21445233       5.79370387       0.67500000
P        1.49549364       7.34773146       4.38882094      -0.67500000
P        4.38882130       7.34773149       1.49549342      -0.67500000
P        1.49874124      10.34036221       1.49874104      -0.67500000
P        4.43481634      10.30204300       4.43481624      -0.67500000
In       0.03401450       5.89505959       0.03401429       0.67500000
In       3.21445257       5.79370393       3.21445228       0.67500000
In       0.00201762       8.85949705       2.96053979       0.67500000
In       2.96054007       8.85949711       0.00201749       0.67500000
P        1.44484193       7.40533134      10.33670602      -0.67500000
P        4.37073758       7.28225837       7.28225824      -0.67500000
P        1.44484193      10.33670621       7.40533123      -0.67500000
P        4.44827172      10.31795106      10.31795089      -0.67500000
In       0.03658866       5.90592422       5.90592405       0.67500000
In       2.88885040       5.90877764       8.83961957       0.67500000
In      -0.08570518       8.80959830       8.80959815       0.67500000
In       2.88885039       8.83961973       5.90877755       0.67500000
P        7.34773152       1.49549366       4.38882105      -0.67500000
P       10.34036219       1.49874106       1.49874104      -0.67500000
P        7.34773151       4.38882117       1.49549360      -0.67500000
P       10.30204294       4.43481632       4.43481627      -0.67500000
In       5.89505960       0.03401439       0.03401438       0.67500000
In       8.85949708       0.00201757       2.96053996       0.67500000
In       5.79370382       3.21445258       3.21445249       0.67500000
In       8.85949709       2.96054001       0.00201758       0.67500000
P        7.40533141       1.44484176      10.33670618      -0.67500000
P       10.33670639       1.44484178       7.40533132      -0.67500000
P        7.28225885       4.37073730       7.28225876      -0.67500000
P       10.31795130       4.44827153      10.31795108      -0.67500000
In       5.90592452       0.03658844       5.90592418       0.67500000
In       8.80959850      -0.08570517       8.80959839       0.67500000
In       5.90877770       2.88885030       8.83961979       0.67500000
In       8.83961991       2.88885030       5.90877768       0.67500000
P        7.28225888       7.28225892       4.37073723      -0.67500000
P       10.33670638       7.40533140       1.44484176      -0.67500000
P        7.40533138      10.33670636       1.44484175      -0.67500000
P       10.31795130      10.31795125       4.44827145      -0.67500000
In       5.90592451       5.90592434       0.03658839       0.67500000
In       8.83961990       5.90877775       2.88885028       0.67500000
In       5.90877768       8.83961995       2.88885027       0.67500000
In       8.80959852       8.80959855      -0.08570511       0.67500000
P        7.33058909       7.33058902      10.23059143      -0.67500000
P       10.23059169       7.33058886       7.33058875      -0.67500000
P        7.33058905      10.23059161       7.33058886      -0.67500000
P       10.33811560      10.33811546      10.33811530      -0.67500000
In       8.74652673       5.79450578       8.74652658       0.67500000
In       5.79450577       8.74652639       8.74652625       0.67500000
In       8.74652675       8.74652674       5.79450572       0.67500000
63