65
Lattice="11.801682 -8e-06 -8e-06 -8e-06 11.801682 -8e-06 -8e-06 -8e-06 11.801682" Properties=species:S:1:pos:R:3:mulliken_charges:R:1:hirshfeld_charges:R:1 fermi_energy=3.718544537463 core_to_fermi_energy=15.690571930710242 config_type=Interstitial energy=-221.2403383595403 pbc="T T T"
P        1.43378976       1.35464008       4.40387644      -0.64200000      -0.23000000
P        4.47381335       1.33230891       1.33230891      -0.45200000      -0.16000000
P        1.43378976       4.40387644       1.35464008      -0.64200000      -0.23000000
P        4.03265404       5.17158470       5.17158470      -0.66200000      -0.24000000
P        1.42975214       1.41716088      10.30619476      -0.64200000      -0.23000000
P        4.39108770       1.46981981       7.33604049      -0.67600000      -0.24000000
P        1.43378299       4.40198623       7.45122290      -0.67400000      -0.24000000
P        4.36580428       4.40292534      10.30377258      -0.67200000      -0.23000000
P        1.43378299       7.45122290       4.40198623      -0.67400000      -0.24000000
P        4.39108770       7.33604049       1.46981981      -0.67600000      -0.24000000
P        1.42975214      10.30619476       1.41716088      -0.64200000      -0.23000000
P        4.36580428      10.30377258       4.40292534      -0.67200000      -0.23000000
P        1.42974605       7.38869200      10.30134753      -0.67400000      -0.24000000
P        4.47380035       7.47354589       7.47354589      -0.68100000      -0.24000000
P        1.42974605      10.30134753       7.38869200      -0.67400000      -0.24000000
P        4.38049480      10.30376485      10.30376485      -0.66200000      -0.24000000
P        7.45165031       1.40783670       4.41572869      -0.67600000      -0.24000000
P       10.33162294       1.44341727       1.44341727      -0.67700000      -0.24000000
P        7.45165031       4.41572869       1.40783670      -0.67600000      -0.24000000
P       10.42072837       4.40292302       4.40292302      -0.67400000      -0.24000000
P        7.33434050       1.49103877      10.24826856      -0.67600000      -0.24000000
P       10.31550943       1.46236918       7.34348205      -0.68000000      -0.24000000
P        7.45164389       4.39012174       7.39801256      -0.67500000      -0.24000000
P       10.29021963       4.40292253      10.30376614      -0.67600000      -0.24000000
P        7.45164389       7.39801256       4.39012174      -0.67500000      -0.24000000
P       10.31550943       7.34348205       1.46236918      -0.68000000      -0.24000000
P        7.33434050      10.24826856       1.49103877      -0.67600000      -0.24000000
P       10.29021963      10.30376614       4.40292253      -0.67600000      -0.24000000
P        7.33433472       7.31480435      10.35926323      -0.67500000      -0.24000000
P       10.33161284       7.36242943       7.36242943      -0.67500000      -0.24000000
P        7.33433472      10.35926323       7.31480435      -0.67500000      -0.24000000
P       10.20958410      10.30376181      10.30376181      -0.67400000      -0.24000000
In      -0.06462780      -0.05396249      -0.05396249       0.67600000       0.24000000
In       2.93670120      -0.03904791       2.85030804       0.73400000       0.26000000
In       0.06626305       2.89384757       2.89384757       0.67600000       0.24000000
In       2.93670120       2.85030804      -0.03904791       0.73400000       0.26000000
In      -0.06062905      -0.06392578       5.89244797       0.65600000       0.23000000
In       2.92026288      -0.01711758       8.82297745       0.68200000       0.25000000
In      -0.06063358       2.91341993       8.86979499       0.65600000       0.23000000
In       2.81038477       2.86341268       5.94245148       0.68200000       0.25000000
In      -0.06062905       5.89244797      -0.06392578       0.65600000       0.23000000
In       2.81038477       5.94245148       2.86341268       0.68200000       0.25000000
In      -0.06063358       8.86979499       2.91341993       0.65600000       0.23000000
In       2.92026288       8.82297745      -0.01711758       0.68200000       0.25000000
In       0.06625636       5.91201513       5.91201513       0.68000000       0.24000000
In       2.93669158       5.95555155       8.84491083       0.68600000       0.24000000
In      -0.06464347       8.85982725       8.85982725       0.68000000       0.24000000
In       2.93669158       8.84491083       5.95555155       0.68600000       0.24000000
In       5.94381191      -0.11107385      -0.11107385       0.63300000       0.22000000
In       8.85988380      -0.06140761       2.89469239       0.68600000       0.24000000
In       6.15783275       2.72118335       2.72118335       0.63300000       0.22000000
In       8.85988380       2.89469239      -0.06140761       0.68600000       0.24000000
In       5.83467815       0.02167844       5.82400787       0.68700000       0.24000000
In       8.80563965       0.02536664       8.78048341       0.67800000       0.24000000
In       5.83467362       2.98185268       8.78418287       0.68700000       0.24000000
In       8.91259511       2.96116337       5.84468708       0.67800000       0.24000000
In       5.83467815       5.82400787       0.02167844       0.68700000       0.24000000
In       8.91259511       5.84468708       2.96116337       0.67800000       0.24000000
In       5.83467362       8.78418287       2.98185268       0.68700000       0.24000000
In       8.80563965       8.78048341       0.02536664       0.67800000       0.24000000
In       6.15782455       6.08467111       6.08467111       0.66100000       0.23000000
In       8.85987248       5.91115778       8.86725716       0.67900000       0.24000000
In       5.94379545       8.91692764       8.91692764       0.66100000       0.23000000
In       8.85987248       8.86725716       5.91115778       0.67900000       0.24000000
P        4.03266513       3.63426999       3.63426999      -0.45200000      -0.16000000
65
Lattice="11.801682 -8e-06 -8e-06 -8e-06 11.801682 -8e-06 -8e-06 -8e-06 11.801682" Properties=species:S:1:pos:R:3:mulliken_charges:R:1:hirshfeld_charges:R:1 fermi_energy=3.718544537463 core_to_fermi_energy=15.690571930710242 config_type=Interstitial energy=-221.23973295025553 pbc="T T T"
P        1.43545308       1.31026571       4.35989345      -0.64200000      -0.23000000
P        4.46930544       1.29047227       1.28955877      -0.45200000      -0.16000000
P        1.43545308       4.36080695       1.30935221      -0.64200000      -0.23000000
P        4.02758849       5.11550848       5.11459498      -0.66200000      -0.24000000
P        1.43150107       1.37098978      10.25813003      -0.64200000      -0.23000000
P        4.39299700       1.42403592       7.29254561      -0.67600000      -0.24000000
P        1.43055193       4.35465189       7.40420258      -0.67400000      -0.24000000
P        4.36770611       4.35744521      10.25676868      -0.67200000      -0.23000000
P        1.43055193       7.40511608       4.35373839      -0.67400000      -0.24000000
P        4.39299700       7.29345911       1.42312242      -0.67600000      -0.24000000
P        1.43150107      10.25904353       1.37007628      -0.64200000      -0.23000000
P        4.36770611      10.25768218       4.35653171      -0.67200000      -0.23000000
P        1.42931938       7.34068885      10.25378725      -0.67400000      -0.24000000
P        4.46847006       7.42289345       7.42197995      -0.68100000      -0.24000000
P        1.42931938      10.25470075       7.33977535      -0.67400000      -0.24000000
P        4.38095339      10.25644551      10.25553201      -0.66200000      -0.24000000
P        7.45425700       1.35935228       4.37224390      -0.67600000      -0.24000000
P       10.33492490       1.39720294       1.39628944      -0.67700000      -0.24000000
P        7.45425700       4.37315740       1.35843878      -0.67600000      -0.24000000
P       10.41912564       4.35543327       4.35451977      -0.67400000      -0.24000000
P        7.33415020       1.44365813      10.20762636      -0.67600000      -0.24000000
P       10.31183605       1.41575644       7.30095935      -0.68000000      -0.24000000
P        7.44921908       4.34537254       7.35064243      -0.67500000      -0.24000000
P       10.29042108       4.35975378      10.25744632      -0.67600000      -0.24000000
P        7.44921908       7.35155593       4.34445904      -0.67500000      -0.24000000
P       10.31183605       7.30187285       1.41484294      -0.68000000      -0.24000000
P        7.33415020      10.20853986       1.44274463      -0.67600000      -0.24000000
P       10.29042108      10.25835982       4.35884029      -0.67600000      -0.24000000
P        7.33366665       7.27179342      10.31003310      -0.67500000      -0.24000000
P       10.33118741       7.31536126       7.31444776      -0.67500000      -0.24000000
P        7.33366665      10.31094659       7.27087992      -0.67500000      -0.24000000
P       10.21360592      10.25706597      10.25615247      -0.67400000      -0.24000000
In      -0.06126610      -0.10034953      -0.10126303       0.67600000       0.24000000
In       2.93569932      -0.08666210       2.80625612       0.73400000       0.26000000
In       0.06913367       2.84813791       2.84722441       0.67600000       0.24000000
In       2.93569932       2.80716962      -0.08757560       0.73400000       0.26000000
In      -0.06202681      -0.10641093       5.84831047       0.65600000       0.23000000
In       2.92044474      -0.06550545       8.77518932       0.68200000       0.25000000
In      -0.06261953       2.86687395       8.82496528       0.65600000       0.23000000
In       2.81259753       2.81806952       5.89888715       0.68200000       0.25000000
In      -0.06202681       5.84922397      -0.10732443       0.65600000       0.23000000
In       2.81259753       5.89980065       2.81715602       0.68200000       0.25000000
In      -0.06261953       8.82587878       2.86596045       0.65600000       0.23000000
In       2.92044474       8.77610282      -0.06641895       0.68200000       0.25000000
In       0.06404649       5.86351559       5.86260210       0.68000000       0.24000000
In       2.93467991       5.90542103       8.79688173       0.68600000       0.24000000
In      -0.06289698       8.81171198       8.81079848       0.68000000       0.24000000
In       2.93467991       8.79779523       5.90450753       0.68600000       0.24000000
In       5.93588687      -0.15348442      -0.15439792       0.63300000       0.22000000
In       8.86337582      -0.10595560       2.84873252       0.68600000       0.24000000
In       6.16795924       2.67417135       2.67325785       0.63300000       0.22000000
In       8.86337582       2.84964602      -0.10686910       0.68600000       0.24000000
In       5.83524406      -0.02578963       5.78080780       0.68700000       0.24000000
In       8.80323038      -0.02327764       8.73869745       0.67800000       0.24000000
In       5.83861325       2.93455314       8.74065446       0.68700000       0.24000000
In       8.91210705       2.91585576       5.80028559       0.67800000       0.24000000
In       5.83524406       5.78172130      -0.02670313       0.68700000       0.24000000
In       8.91210705       5.80119909       2.91494227       0.67800000       0.24000000
In       5.83861325       8.74156796       2.93363964       0.68700000       0.24000000
In       8.80323038       8.73961095      -0.02419114       0.67800000       0.24000000
In       6.15065496       6.03446478       6.03355128       0.66100000       0.23000000
In       8.85820939       5.86592405       8.81978589       0.67900000       0.24000000
In       5.93843858       8.86594121       8.86502771       0.66100000       0.23000000
In       8.85820939       8.82069939       5.86501055       0.67900000       0.24000000
P        4.03751452       3.57751522       3.57660172      -0.45200000      -0.16000000
65
Lattice="11.801682 -8e-06 -8e-06 -8e-06 11.801682 -8e-06 -8e-06 -8e-06 11.801682" Properties=species:S:1:pos:R:3:mulliken_charges:R:1:hirshfeld_charges:R:1 fermi_energy=3.718544537463 core_to_fermi_energy=15.690571930710242 config_type=Interstitial energy=-221.2089699254433 pbc="T T T"
P        1.44463881       1.31202695       4.36203525      -0.64200000      -0.23000000
P        4.44033054       1.30538707       1.30422370      -0.45200000      -0.16000000
P        1.44463881       4.36319862       1.31086357      -0.64200000      -0.23000000
P        3.98791245       5.02580618       5.02464280      -0.66200000      -0.24000000
P        1.44071431       1.35986831      10.24210502      -0.64200000      -0.23000000
P        4.40272301       1.41095548       7.29981134      -0.67600000      -0.24000000
P        1.41614442       4.34040406       7.39360619      -0.67400000      -0.24000000
P        4.37871998       4.35010777      10.24344440      -0.67200000      -0.23000000
P        1.41614442       7.39476956       4.33924069      -0.67400000      -0.24000000
P        4.40272301       7.30097471       1.40979211      -0.67600000      -0.24000000
P        1.44071431      10.24326839       1.35870494      -0.64200000      -0.23000000
P        4.37871998      10.24460777       4.34894439      -0.67200000      -0.23000000
P        1.42918266       7.31891586      10.23711680      -0.67400000      -0.24000000
P        4.45132375       7.38513681       7.38397344      -0.68100000      -0.24000000
P        1.42918266      10.23828018       7.31775249      -0.67400000      -0.24000000
P        4.38541791      10.24202927      10.24086590      -0.66200000      -0.24000000
P        7.47333123       1.33085203       4.38446681      -0.67600000      -0.24000000
P       10.34449944       1.38343392       1.38227055      -0.67700000      -0.24000000
P        7.47333123       4.38563018       1.32968865      -0.67600000      -0.24000000
P       10.41132500       4.33807887       4.33691550      -0.67400000      -0.24000000
P        7.33246175       1.42239528      10.22616085      -0.67600000      -0.24000000
P       10.30019599       1.39864101       7.31040247      -0.68000000      -0.24000000
P        7.43124733       4.33963006       7.33264441      -0.67500000      -0.24000000
P       10.29167153       4.36179715      10.24463627      -0.67600000      -0.24000000
P        7.43124733       7.33380778       4.33846668      -0.67500000      -0.24000000
P       10.30019599       7.31156585       1.39747763      -0.68000000      -0.24000000
P        7.33246175      10.22732423       1.42123191      -0.67600000      -0.24000000
P       10.29167153      10.24579964       4.36063377      -0.67600000      -0.24000000
P        7.33555675       7.27689755      10.28568952      -0.67500000      -0.24000000
P       10.32708974       7.29965130       7.29848792      -0.67500000      -0.24000000
P        7.33555675      10.28685290       7.27573418      -0.67500000      -0.24000000
P       10.23537893      10.24332115      10.24215777      -0.67400000      -0.24000000
In      -0.04515477      -0.11140613      -0.11256951       0.67600000       0.24000000
In       2.92887982      -0.10737756       2.81522251       0.73400000       0.26000000
In       0.07762389       2.83613292       2.83496955       0.67600000       0.24000000
In       2.92887982       2.81638588      -0.10854093       0.73400000       0.26000000
In      -0.06399354      -0.10299788       5.84544706       0.65600000       0.23000000
In       2.92027581      -0.08979303       8.76184542       0.68200000       0.25000000
In      -0.06970459       2.85316000       8.82317954       0.65600000       0.23000000
In       2.82108277       2.80776765       5.91047819       0.68200000       0.25000000
In      -0.06399354       5.84661043      -0.10416126       0.65600000       0.23000000
In       2.82108277       5.91164157       2.80660427       0.68200000       0.25000000
In      -0.06970459       8.82434292       2.85199662       0.65600000       0.23000000
In       2.92027581       8.76300879      -0.09095640       0.68200000       0.25000000
In       0.05273091       5.84135343       5.84019005       0.68000000       0.24000000
In       2.93059102       5.87642527       8.77607880       0.68600000       0.24000000
In      -0.05436417       8.79030980       8.78914643       0.68000000       0.24000000
In       2.93059102       8.77724217       5.87526190       0.68600000       0.24000000
In       5.89475957      -0.14157908      -0.14274246       0.63300000       0.22000000
In       8.87922667      -0.11529324       2.84259002       0.68600000       0.24000000
In       6.23781575       2.65693114       2.65576776       0.63300000       0.22000000
In       8.87922667       2.84375339      -0.11645662       0.68600000       0.24000000
In       5.84022542      -0.04884729       5.79153906       0.68700000       0.24000000
In       8.79574613      -0.04817681       8.75248908       0.67800000       0.24000000
In       5.85846394       2.91493859       8.74685949       0.68700000       0.24000000
In       8.91384628       2.90830544       5.80656916       0.67800000       0.24000000
In       5.84022542       5.79270244      -0.05001066       0.68700000       0.24000000
In       8.91384628       5.80773253       2.90714206       0.67800000       0.24000000
In       5.85846394       8.74802286       2.91377521       0.68700000       0.24000000
In       8.79574613       8.75365245      -0.04934018       0.67800000       0.24000000
In       6.09571319       5.98412322       5.98295984       0.66100000       0.23000000
In       8.84711003       5.85560957       8.80141678       0.67900000       0.24000000
In       5.91467846       8.83156956       8.83040618       0.66100000       0.23000000
In       8.84711003       8.80258016       5.85444620       0.67900000       0.24000000
P        4.06909369       3.48571698       3.48455361      -0.45200000      -0.16000000
65
Lattice="11.801682 -8e-06 -8e-06 -8e-06 11.801682 -8e-06 -8e-06 -8e-06 11.801682" Properties=species:S:1:pos:R:3:mulliken_charges:R:1:hirshfeld_charges:R:1 fermi_energy=3.718544537463 core_to_fermi_energy=15.690571930710242 config_type=Interstitial energy=-221.13115983126528 pbc="T T T"
P        1.45400661       1.33146737       4.37199496      -0.64200000      -0.23000000
P        4.39991000       1.33838369       1.33722166      -0.45200000      -0.16000000
P        1.45400661       4.37315699       1.33030534      -0.64200000      -0.23000000
P        3.94686338       4.93198375       4.93082172      -0.66200000      -0.24000000
P        1.44471097       1.36316470      10.23972195      -0.64200000      -0.23000000
P        4.41054274       1.40875384       7.31737312      -0.67600000      -0.24000000
P        1.40736523       4.34613842       7.39606500      -0.67400000      -0.24000000
P        4.38825514       4.35669765      10.24016242      -0.67200000      -0.23000000
P        1.40736523       7.39722703       4.34497639      -0.67400000      -0.24000000
P        4.41054274       7.31853515       1.40759181      -0.67600000      -0.24000000
P        1.44471097      10.24088398       1.36200267      -0.64200000      -0.23000000
P        4.38825514      10.24132445       4.35553562      -0.67200000      -0.23000000
P        1.43081354       7.31222313      10.23555616      -0.67400000      -0.24000000
P        4.44585465       7.36619255       7.36503052      -0.68100000      -0.24000000
P        1.43081354      10.23671819       7.31106110      -0.67400000      -0.24000000
P        4.38942756      10.24813112      10.24696909      -0.66200000      -0.24000000
P        7.49498068       1.31353774       4.41374744      -0.67600000      -0.24000000
P       10.34217437       1.38204550       1.38088347      -0.67700000      -0.24000000
P        7.49498068       4.41490947       1.31237571      -0.67600000      -0.24000000
P       10.40441198       4.33838241       4.33722038      -0.67400000      -0.24000000
P        7.32904721       1.41300509      10.24931534      -0.67600000      -0.24000000
P       10.29880197       1.39300610       7.32605301      -0.68000000      -0.24000000
P        7.41075474       4.34731713       7.32478245      -0.67500000      -0.24000000
P       10.29218657       4.37315215      10.24118289      -0.67600000      -0.24000000
P        7.41075474       7.32594448       4.34615510      -0.67500000      -0.24000000
P       10.29880197       7.32721504       1.39184407      -0.68000000      -0.24000000
P        7.32904721      10.25047737       1.41184306      -0.67600000      -0.24000000
P       10.29218657      10.24234492       4.37199012      -0.67600000      -0.24000000
P        7.34094639       7.29344130      10.27675586      -0.67500000      -0.24000000
P       10.32190698       7.30060217       7.29944014      -0.67500000      -0.24000000
P        7.34094639      10.27791789       7.29227927      -0.67500000      -0.24000000
P       10.25144888      10.24400373      10.24284170      -0.67400000      -0.24000000
In      -0.03574891      -0.10729035      -0.10845238       0.67600000       0.24000000
In       2.91744385      -0.11996318       2.84185732       0.73400000       0.26000000
In       0.07483672       2.83622931       2.83506728       0.67600000       0.24000000
In       2.91744385       2.84301935      -0.12112521       0.73400000       0.26000000
In      -0.05904551      -0.09105273       5.84515355       0.65600000       0.23000000
In       2.91946166      -0.09699688       8.76516129       0.68200000       0.25000000
In      -0.07302323       2.85601230       8.82887449       0.65600000       0.23000000
In       2.82397666       2.80829479       5.93969948       0.68200000       0.25000000
In      -0.05904551       5.84631558      -0.09221476       0.65600000       0.23000000
In       2.82397666       5.94086151       2.80713276       0.68200000       0.25000000
In      -0.07302323       8.83003652       2.85485027       0.65600000       0.23000000
In       2.91946166       8.76632332      -0.09815892       0.68200000       0.25000000
In       0.04261578       5.83779188       5.83662985       0.68000000       0.24000000
In       2.93274758       5.86849785       8.76636401       0.68600000       0.24000000
In      -0.04693237       8.78601420       8.78485217       0.68000000       0.24000000
In       2.93274758       8.76752604       5.86733582       0.68600000       0.24000000
In       5.85951346      -0.11209616      -0.11325819       0.63300000       0.22000000
In       8.88761152      -0.11871323       2.84815925       0.68600000       0.24000000
In       6.31705435       2.66113257       2.65997054       0.63300000       0.22000000
In       8.88761152       2.84932128      -0.11987526       0.68600000       0.24000000
In       5.84529716      -0.06230826       5.81450438       0.68700000       0.24000000
In       8.79373429      -0.05603557       8.77223331       0.67800000       0.24000000
In       5.87455804       2.90886076       8.76257394       0.68700000       0.24000000
In       8.91954977       2.91372753       5.82930657       0.67800000       0.24000000
In       5.84529716       5.81566641      -0.06347029       0.68700000       0.24000000
In       8.91954977       5.83046860       2.91256550       0.67800000       0.24000000
In       5.87455804       8.76373597       2.90769873       0.68700000       0.24000000
In       8.79373429       8.77339535      -0.05719760       0.67800000       0.24000000
In       6.02838841       5.93933557       5.93817354       0.66100000       0.23000000
In       8.83513307       5.85661109       8.79436989       0.67900000       0.24000000
In       5.89859285       8.82106683       8.81990480       0.66100000       0.23000000
In       8.83513307       8.79553192       5.85544906       0.67900000       0.24000000
P        4.10283437       3.39075996       3.38959793      -0.45200000      -0.16000000
65
Lattice="11.801682 -8e-06 -8e-06 -8e-06 11.801682 -8e-06 -8e-06 -8e-06 11.801682" Properties=species:S:1:pos:R:3:mulliken_charges:R:1:hirshfeld_charges:R:1 fermi_energy=3.718544537463 core_to_fermi_energy=15.690571930710242 config_type=Interstitial energy=-221.01476011379364 pbc="T T T"
P        1.46399561       1.35336088       4.37825899      -0.64200000      -0.23000000
P        4.34177079       1.37439157       1.37322954      -0.45200000      -0.16000000
P        1.46399561       4.37942102       1.35219885      -0.64200000      -0.23000000
P        3.92734000       4.82519409       4.82403206      -0.66200000      -0.24000000
P        1.44412854       1.36683778      10.23613778      -0.64200000      -0.23000000
P        4.41540290       1.40681901       7.33074035      -0.67600000      -0.24000000
P        1.40397956       4.35608043       7.39597089      -0.67400000      -0.24000000
P        4.39558954       4.36277025      10.23529183      -0.67200000      -0.23000000
P        1.40397956       7.39713291       4.35491840      -0.67400000      -0.24000000
P        4.41540290       7.33190238       1.40565698      -0.67600000      -0.24000000
P        1.44412854      10.23729981       1.36567575      -0.64200000      -0.23000000
P        4.39558954      10.23645386       4.36160822      -0.67200000      -0.23000000
P        1.43238760       7.30889772      10.23818139      -0.67400000      -0.24000000
P        4.44269350       7.35078495       7.34962292      -0.68100000      -0.24000000
P        1.43238760      10.23934341       7.30773569      -0.67400000      -0.24000000
P        4.39359696      10.25889799      10.25773596      -0.66200000      -0.24000000
P        7.51926305       1.29444189       4.44500163      -0.67600000      -0.24000000
P       10.33414121       1.38098241       1.37982038      -0.67700000      -0.24000000
P        7.51926305       4.44616366       1.29327986      -0.67600000      -0.24000000
P       10.39604878       4.34261006       4.34144803      -0.67400000      -0.24000000
P        7.32546281       1.40481203      10.26437173      -0.67600000      -0.24000000
P       10.30170738       1.38734780       7.33699138      -0.68000000      -0.24000000
P        7.38998810       4.35461933       7.31657447      -0.67500000      -0.24000000
P       10.29340865       4.38312818      10.23588193      -0.67600000      -0.24000000
P        7.38998810       7.31773650       4.35345730      -0.67500000      -0.24000000
P       10.30170738       7.33815341       1.38618577      -0.68000000      -0.24000000
P        7.32546281      10.26553376       1.40365000      -0.67600000      -0.24000000
P       10.29340865      10.23704396       4.38196615      -0.67600000      -0.24000000
P        7.34546564       7.30653414      10.26946345      -0.67500000      -0.24000000
P       10.31589795       7.30390828       7.30274625      -0.67500000      -0.24000000
P        7.34546564      10.27062547       7.30537212      -0.67500000      -0.24000000
P       10.26242430      10.24485350      10.24369147      -0.67400000      -0.24000000
In      -0.03098919      -0.10281850      -0.10398053       0.67600000       0.24000000
In       2.90170430      -0.13777456       2.86956528       0.73400000       0.26000000
In       0.06471135       2.83803860       2.83687657       0.67600000       0.24000000
In       2.90170430       2.87072731      -0.13893659       0.73400000       0.26000000
In      -0.04997585      -0.07960472       5.83942982       0.65600000       0.23000000
In       2.91995374      -0.09970171       8.77082435       0.68200000       0.25000000
In      -0.07363304       2.86187762       8.82804010       0.65600000       0.23000000
In       2.82600278       2.81184801       5.96739904       0.68200000       0.25000000
In      -0.04997585       5.84059185      -0.08076675       0.65600000       0.23000000
In       2.82600278       5.96856107       2.81068598       0.68200000       0.25000000
In      -0.07363304       8.82920213       2.86071559       0.65600000       0.23000000
In       2.91995374       8.77198638      -0.10086374       0.68200000       0.25000000
In       0.03306676       5.83798242       5.83682039       0.68000000       0.24000000
In       2.93483934       5.86591325       8.76012628       0.68600000       0.24000000
In      -0.04036957       8.78438538       8.78322335       0.68000000       0.24000000
In       2.93483934       8.76128831       5.86475122       0.68600000       0.24000000
In       5.82836249      -0.07740468      -0.07856671       0.63300000       0.22000000
In       8.89319292      -0.12684595       2.85134467       0.68600000       0.24000000
In       6.40694693       2.68259370       2.68143167       0.63300000       0.22000000
In       8.89319292       2.85250670      -0.12800798       0.68600000       0.24000000
In       5.84842612      -0.07553984       5.83445905       0.68700000       0.24000000
In       8.79334488      -0.06167098       8.78546773       0.67800000       0.24000000
In       5.88581840       2.90344967       8.77433031       0.68700000       0.24000000
In       8.92598474       2.91848101       5.85364860       0.67800000       0.24000000
In       5.84842612       5.83562108      -0.07670187       0.68700000       0.24000000
In       8.92598474       5.85481062       2.91731898       0.67800000       0.24000000
In       5.88581840       8.77549234       2.90228764       0.68700000       0.24000000
In       8.79334488       8.78662976      -0.06283301       0.67800000       0.24000000
In       5.96288934       5.89522213       5.89406010       0.66100000       0.23000000
In       8.82188199       5.85687721       8.78562386       0.67900000       0.24000000
In       5.88585245       8.81607110       8.81490907       0.66100000       0.23000000
In       8.82188199       8.78678588       5.85571518       0.67900000       0.24000000