65
Lattice="11.801682 -8e-06 -8e-06 -8e-06 11.801682 -8e-06 -8e-06 -8e-06 11.801682" Properties=species:S:1:pos:R:3:mulliken_charges:R:1:hirshfeld_charges:R:1 fermi_energy=3.718544537463 core_to_fermi_energy=15.690571930710242 config_type=Interstitial energy=-221.24033835953847 pbc="T T T"
P        1.43378699       1.45156773       4.50080440      -0.64200000      -0.23000000
P        4.03265804       2.22116620       2.22116620      -0.45200000      -0.16000000
P        1.43378699       4.50080440       1.45156773      -0.64200000      -0.23000000
P        4.47380435       4.52312739       4.52312739      -0.66200000      -0.24000000
P        1.43378576       1.45344994      10.20590358      -0.64200000      -0.23000000
P        4.36580828       1.45250684       7.35335408      -0.67600000      -0.24000000
P        1.42975005       4.43827350       7.35092903      -0.67400000      -0.24000000
P        4.39108369       4.38561399      10.32108331      -0.67200000      -0.23000000
P        1.42975005       7.35092903       4.43827350      -0.67400000      -0.24000000
P        4.36580828       7.35335408       1.45250684      -0.67600000      -0.24000000
P        1.43378576      10.20590358       1.45344994      -0.64200000      -0.23000000
P        4.39108369      10.32108331       4.38561399      -0.67200000      -0.23000000
P        1.42974814       7.35576826      10.26842438      -0.67400000      -0.24000000
P        4.38049880       7.35334635       7.35334635      -0.68100000      -0.24000000
P        1.42974814      10.26842438       7.35576826      -0.67400000      -0.24000000
P        4.47380135      10.18356441      10.18356441      -0.66200000      -0.24000000
P        7.45164789       1.43970324       4.44759406      -0.67600000      -0.24000000
P       10.42073237       1.45250452       1.45250452      -0.67700000      -0.24000000
P        7.45164789       4.44759406       1.43970324      -0.67600000      -0.24000000
P       10.33161684       4.41201093       4.41201093      -0.67400000      -0.24000000
P        7.45164631       1.46530219      10.25910020      -0.67600000      -0.24000000
P       10.29022363       1.45250403       7.35334764      -0.68000000      -0.24000000
P        7.33433872       4.36438585       7.40884473      -0.67500000      -0.24000000
P       10.31550543       4.39305555      10.31363268      -0.67600000      -0.24000000
P        7.33433872       7.40884473       4.36438585      -0.67500000      -0.24000000
P       10.29022363       7.35334764       1.45250403      -0.68000000      -0.24000000
P        7.45164631      10.25910020       1.46530219      -0.67600000      -0.24000000
P       10.31550543      10.31363268       4.39305555      -0.67600000      -0.24000000
P        7.33433650       7.29784206      10.34230227      -0.67500000      -0.24000000
P       10.20958810       7.35334331       7.35334331      -0.67500000      -0.24000000
P        7.33433650      10.34230227       7.29784206      -0.67500000      -0.24000000
P       10.33161094      10.29467277      10.29467277      -0.67400000      -0.24000000
In       0.06626705      -0.05657093      -0.05657093       0.67600000       0.24000000
In       2.81038877      -0.08700582       2.99203298       0.73400000       0.26000000
In       0.06626036       2.96159663       2.96159663       0.67600000       0.24000000
In       2.81038877       2.99203298      -0.08700582       0.73400000       0.26000000
In      -0.06062958      -0.03699857       5.91937649       0.65600000       0.23000000
In       2.93669720      -0.10011846       8.81221559       0.68200000       0.25000000
In      -0.06063305       2.94202147       8.78733772       0.65600000       0.23000000
In       2.93669558       3.00513305       5.89449233       0.68200000       0.25000000
In      -0.06062958       5.91937649      -0.03699857       0.65600000       0.23000000
In       2.93669558       5.89449233       3.00513305       0.68200000       0.25000000
In      -0.06063305       8.78733772       2.94202147       0.65600000       0.23000000
In       2.93669720       8.81221559      -0.10011846       0.68200000       0.25000000
In      -0.06463947       5.90940875       5.90940875       0.68000000       0.24000000
In       2.92025888       5.87255095       8.83414592       0.68600000       0.24000000
In      -0.06463980       8.79729302       8.79729302       0.68000000       0.24000000
In       2.92025888       8.83414592       5.87255095       0.68600000       0.24000000
In       6.15783675      -0.22923515      -0.22923515       0.63300000       0.22000000
In       8.91259911       0.01074487       2.89426858       0.68600000       0.24000000
In       6.15782855       3.13425261       3.13425261       0.63300000       0.22000000
In       8.91259911       2.89426858       0.01074487       0.68600000       0.24000000
In       5.83467762       0.03143418       5.83376437       0.68700000       0.24000000
In       8.85987980      -0.05573411       8.78985589       0.67800000       0.24000000
In       5.83467415       2.87358137       8.87294194       0.68700000       0.24000000
In       8.85987648       2.96073928       5.91683866       0.67800000       0.24000000
In       5.83467762       5.83376437       0.03143418       0.68700000       0.24000000
In       8.85987648       5.91683866       2.96073928       0.67800000       0.24000000
In       5.83467415       8.87294194       2.87358137       0.68700000       0.24000000
In       8.85987980       8.78985589      -0.05573411       0.67800000       0.24000000
In       5.94379945       5.96650914       5.96650914       0.66100000       0.23000000
In       8.80563565       5.83005691       8.87663014       0.67900000       0.24000000
In       5.94379991       8.74018165       8.74018165       0.66100000       0.23000000
In       8.80563565       8.87663014       5.83005691       0.67900000       0.24000000
P        4.03266913       0.68385149       0.68385149      -0.45200000      -0.16000000
65
Lattice="11.801682 -8e-06 -8e-06 -8e-06 11.801682 -8e-06 -8e-06 -8e-06 11.801682" Properties=species:S:1:pos:R:3:mulliken_charges:R:1:hirshfeld_charges:R:1 fermi_energy=3.718544537463 core_to_fermi_energy=15.690571930710242 config_type=Interstitial energy=-221.23523550530993 pbc="T T T"
P        1.40563587       1.44846339       4.51724044      -0.64200000      -0.23000000
P        4.04383716       2.16721303       2.28369556      -0.45200000      -0.16000000
P        1.45726902       4.47566029       1.43905020      -0.64200000      -0.23000000
P        4.47243076       4.51652311       4.51808025      -0.66200000      -0.24000000
P        1.40622405       1.45519743      10.18431141      -0.64200000      -0.23000000
P        4.37309671       1.44787141       7.34765557      -0.67600000      -0.24000000
P        1.43908456       4.44237631       7.34359938      -0.67400000      -0.24000000
P        4.39282943       4.39240602      10.31412297      -0.67200000      -0.23000000
P        1.43389294       7.35026025       4.42460127      -0.67400000      -0.24000000
P        4.36287644       7.35404617       1.45069023      -0.67600000      -0.24000000
P        1.44748776      10.23155150       1.46395291      -0.64200000      -0.23000000
P        4.39348024      10.30725149       4.38854439      -0.67200000      -0.23000000
P        1.42788331       7.35605715      10.28061659      -0.67400000      -0.24000000
P        4.38288145       7.35224663       7.35565570      -0.68100000      -0.24000000
P        1.43379352      10.26278047       7.36058872      -0.67400000      -0.24000000
P        4.46447235      10.18782703      10.18977148      -0.66200000      -0.24000000
P        7.45453812       1.46236480       4.44445011      -0.67600000      -0.24000000
P       10.40724691       1.45334087       1.45231601      -0.67700000      -0.24000000
P        7.45668899       4.46698098       1.41944448      -0.67600000      -0.24000000
P       10.34099211       4.41193109       4.40487503      -0.67400000      -0.24000000
P        7.44330344       1.44693647      10.26730533      -0.67600000      -0.24000000
P       10.27664727       1.45022961       7.35656255      -0.68000000      -0.24000000
P        7.33735614       4.36707836       7.42271931      -0.67500000      -0.24000000
P       10.30851871       4.39877576      10.31273834      -0.67600000      -0.24000000
P        7.33361683       7.38759270       4.36908237      -0.67500000      -0.24000000
P       10.30694833       7.35222286       1.45194174      -0.68000000      -0.24000000
P        7.45260350      10.25152429       1.48039025      -0.67600000      -0.24000000
P       10.30827932      10.30510508       4.39325539      -0.67600000      -0.24000000
P        7.33181710       7.32336340      10.33636845      -0.67500000      -0.24000000
P       10.22120534       7.35075364       7.35209726      -0.67500000      -0.24000000
P        7.33869367      10.34278006       7.28634428      -0.67500000      -0.24000000
P       10.33537143      10.29158608      10.30374405      -0.67400000      -0.24000000
In       0.06275408      -0.04722875      -0.05018195       0.67600000       0.24000000
In       2.81009671      -0.07465497       3.02506687       0.73400000       0.26000000
In       0.06888354       2.95477063       2.94981826       0.67600000       0.24000000
In       2.81177617       2.97349927      -0.12086898       0.73400000       0.26000000
In      -0.07821715      -0.05423948       5.93419446       0.65600000       0.23000000
In       2.93283016      -0.09089487       8.81554948       0.68200000       0.25000000
In      -0.07649360       2.96042432       8.76931033       0.65600000       0.23000000
In       2.93488447       2.99175787       5.88727804       0.68200000       0.25000000
In      -0.04994913       5.90142200      -0.03018921       0.65600000       0.23000000
In       2.94135449       5.88822276       2.99784305       0.68200000       0.25000000
In      -0.05061749       8.80046098       2.93512863       0.65600000       0.23000000
In       2.93171426       8.81786653      -0.09045892       0.68200000       0.25000000
In      -0.05387324       5.91147251       5.89853740       0.68000000       0.24000000
In       2.91642422       5.88229074       8.83627099       0.68600000       0.24000000
In      -0.06062792       8.79434883       8.80534824       0.68000000       0.24000000
In       2.91842285       8.82228284       5.87434036       0.68600000       0.24000000
In       6.14742729      -0.24396149      -0.20862419       0.63300000       0.22000000
In       8.90579740       0.01652867       2.90690273       0.68600000       0.24000000
In       6.16652193       3.15582185       3.11375408       0.63300000       0.22000000
In       8.90413178       2.88965878      -0.00054321       0.68600000       0.24000000
In       5.84317249       0.03258868       5.81708055       0.68700000       0.24000000
In       8.85754933      -0.06436595       8.79810538       0.67800000       0.24000000
In       5.83795508       2.86708129       8.87945636       0.68700000       0.24000000
In       8.86434803       2.97293526       5.91964347       0.67800000       0.24000000
In       5.83316977       5.85328167       0.01596992       0.68700000       0.24000000
In       8.87212552       5.91751571       2.95682359       0.67800000       0.24000000
In       5.83758277       8.85533059       2.88075444       0.68700000       0.24000000
In       8.86616634       8.78936371      -0.04644541       0.67800000       0.24000000
In       5.93829567       5.95106594       5.97401783       0.66100000       0.23000000
In       8.80407752       5.84796166       8.88105692       0.67900000       0.24000000
In       5.93606241       8.76048367       8.73242154       0.66100000       0.23000000
In       8.80452517       8.86028507       5.82920124       0.67900000       0.24000000
P        4.02792538       0.74321101       0.64439364      -0.45200000      -0.16000000
65
Lattice="11.801682 -8e-06 -8e-06 -8e-06 11.801682 -8e-06 -8e-06 -8e-06 11.801682" Properties=species:S:1:pos:R:3:mulliken_charges:R:1:hirshfeld_charges:R:1 fermi_energy=3.718544537463 core_to_fermi_energy=15.690571930710242 config_type=Interstitial energy=-221.22077359168 pbc="T T T"
P        1.38286656       1.44623521       4.52509214      -0.64200000      -0.23000000
P        4.07766230       2.09813831       2.35528804      -0.45200000      -0.16000000
P        1.47256707       4.46049113       1.43092720      -0.64200000      -0.23000000
P        4.47912598       4.51239873       4.51645698      -0.66200000      -0.24000000
P        1.38355633       1.45708445      10.16478483      -0.64200000      -0.23000000
P        4.37803183       1.44158870       7.33868382      -0.67600000      -0.24000000
P        1.44775976       4.44368629       7.33122875      -0.67400000      -0.24000000
P        4.38768559       4.40332889      10.30486369      -0.67200000      -0.23000000
P        1.43708352       7.34360794       4.41304233      -0.67400000      -0.24000000
P        4.36069540       7.35562077       1.44916022      -0.67600000      -0.24000000
P        1.45453778      10.24908950       1.47009919      -0.64200000      -0.23000000
P        4.39171104      10.28577152       4.39451875      -0.67200000      -0.23000000
P        1.42611033       7.36214696      10.28990904      -0.67400000      -0.24000000
P        4.38453551       7.35135074       7.35852458      -0.68100000      -0.24000000
P        1.43426678      10.25897352       7.36675812      -0.67400000      -0.24000000
P        4.46215446      10.19199056      10.19149378      -0.66200000      -0.24000000
P        7.46239707       1.48382794       4.44515017      -0.67600000      -0.24000000
P       10.39813391       1.45142571       1.45195545      -0.67700000      -0.24000000
P        7.46494871       4.48378425       1.40230190      -0.67600000      -0.24000000
P       10.34536924       4.40882459       4.39835140      -0.67400000      -0.24000000
P        7.43547923       1.43179137      10.27452179      -0.67600000      -0.24000000
P       10.26913148       1.44623239       7.35937603      -0.68000000      -0.24000000
P        7.33673753       4.36771284       7.43905675      -0.67500000      -0.24000000
P       10.30809233       4.40063988      10.31415934      -0.67600000      -0.24000000
P        7.33447885       7.37554003       4.37114677      -0.67500000      -0.24000000
P       10.31707948       7.35435093       1.45098976      -0.68000000      -0.24000000
P        7.45168864      10.25295820       1.48805566      -0.67600000      -0.24000000
P       10.30539634      10.29885938       4.39256166      -0.67600000      -0.24000000
P        7.32902479       7.33836915      10.33407092      -0.67500000      -0.24000000
P       10.22527802       7.34468078       7.35131602      -0.67500000      -0.24000000
P        7.34240967      10.34524025       7.27435425      -0.67500000      -0.24000000
P       10.33617971      10.28901544      10.31186011      -0.67400000      -0.24000000
In       0.06014492      -0.03902020      -0.04766793       0.67600000       0.24000000
In       2.80383749      -0.07854354       3.05578906       0.73400000       0.26000000
In       0.07074265       2.94802353       2.93831060       0.67600000       0.24000000
In       2.80011801       2.97236265      -0.15411534       0.73400000       0.26000000
In      -0.08835857      -0.06626776       5.94349410       0.65600000       0.23000000
In       2.93014647      -0.08395135       8.81939759       0.68200000       0.25000000
In      -0.08682819       2.97487301       8.75047301       0.65600000       0.23000000
In       2.93635050       2.97831973       5.87552386       0.68200000       0.25000000
In      -0.04193548       5.89386360      -0.02621211       0.65600000       0.23000000
In       2.95146539       5.87911955       2.99318218       0.68200000       0.25000000
In      -0.04220022       8.80690951       2.93103566       0.65600000       0.23000000
In       2.93230363       8.82740718      -0.08384178       0.68200000       0.25000000
In      -0.04967773       5.91054184       5.88771282       0.68000000       0.24000000
In       2.90655956       5.89360864       8.83410508       0.68600000       0.24000000
In      -0.06379225       8.79114749       8.80975138       0.68000000       0.24000000
In       2.91012332       8.80726164       5.88010466       0.68600000       0.24000000
In       6.12888410      -0.24971040      -0.19127868       0.63300000       0.22000000
In       8.90092444       0.02207288       2.91897792       0.68600000       0.24000000
In       6.18083235       3.17894829       3.10077700       0.63300000       0.22000000
In       8.90038310       2.88342218      -0.00946881       0.68600000       0.24000000
In       5.84978666       0.03235847       5.79610704       0.68700000       0.24000000
In       8.85599678      -0.07076361       8.80461727       0.67800000       0.24000000
In       5.83466141       2.86003534       8.88739866       0.68700000       0.24000000
In       8.86952798       2.98272727       5.92991932       0.67800000       0.24000000
In       5.82840176       5.86589438       0.00576962       0.68700000       0.24000000
In       8.88242378       5.92066534       2.95448866       0.67800000       0.24000000
In       5.84157042       8.84465635       2.88234887       0.68700000       0.24000000
In       8.86597032       8.78928672      -0.04026998       0.67800000       0.24000000
In       5.93903939       5.94434643       5.98233017       0.66100000       0.23000000
In       8.80318192       5.85653411       8.88982275       0.67900000       0.24000000
In       5.93564348       8.77256605       8.72497656       0.66100000       0.23000000
In       8.80586602       8.85006791       5.82776345       0.67900000       0.24000000
P        4.02297192       0.81344196       0.61542821      -0.45200000      -0.16000000
65
Lattice="11.801682 -8e-06 -8e-06 -8e-06 11.801682 -8e-06 -8e-06 -8e-06 11.801682" Properties=species:S:1:pos:R:3:mulliken_charges:R:1:hirshfeld_charges:R:1 fermi_energy=3.718544537463 core_to_fermi_energy=15.690571930710242 config_type=Interstitial energy=-221.19335033749365 pbc="T T T"
P        1.36460591       1.44341158       4.51938051      -0.64200000      -0.23000000
P        4.15405032       2.00815290       2.42566384      -0.45200000      -0.16000000
P        1.47593539       4.45375361       1.42864321      -0.64200000      -0.23000000
P        4.48679136       4.50788478       4.51402901      -0.66200000      -0.24000000
P        1.36695338       1.46338239      10.15285590      -0.64200000      -0.23000000
P        4.38149473       1.43644589       7.32735076      -0.67600000      -0.24000000
P        1.45699090       4.44115100       7.31527901      -0.67400000      -0.24000000
P        4.37999433       4.41852201      10.29542694      -0.67200000      -0.23000000
P        1.44047901       7.33435842       4.40194257      -0.67400000      -0.24000000
P        4.36069075       7.35975454       1.44763400      -0.67600000      -0.24000000
P        1.45424974      10.26293810       1.47480869      -0.64200000      -0.23000000
P        4.38930749      10.25518392       4.40704458      -0.67200000      -0.23000000
P        1.42539724       7.36983831      10.29908130      -0.67400000      -0.24000000
P        4.38536745       7.34859078       7.36115234      -0.68100000      -0.24000000
P        1.43200481      10.25889251       7.37265550      -0.67400000      -0.24000000
P        4.45880686      10.19722155      10.18939870      -0.66200000      -0.24000000
P        7.46843128       1.50175068       4.45211074      -0.67600000      -0.24000000
P       10.38522304       1.44642735       1.45001432      -0.67700000      -0.24000000
P        7.47371411       4.50146279       1.38670774      -0.67600000      -0.24000000
P       10.34370023       4.40371033       4.39330986      -0.67400000      -0.24000000
P        7.42636915       1.42140635      10.27873361      -0.67600000      -0.24000000
P       10.26810782       1.44111416       7.36094214      -0.68000000      -0.24000000
P        7.33499481       4.36977708       7.45283049      -0.67500000      -0.24000000
P       10.30905693       4.40004500      10.31557922      -0.67600000      -0.24000000
P        7.33716997       7.36831156       4.37401528      -0.67500000      -0.24000000
P       10.32156850       7.35906448       1.45009209      -0.68000000      -0.24000000
P        7.44702371      10.26218574       1.48922325      -0.67600000      -0.24000000
P       10.30198051      10.29355739       4.39321921      -0.67600000      -0.24000000
P        7.32899555       7.34925160      10.33123809      -0.67500000      -0.24000000
P       10.23186033       7.33574132       7.35073811      -0.67500000      -0.24000000
P        7.34732376      10.34597609       7.26712348      -0.67500000      -0.24000000
P       10.33563441      10.28683507      10.31826072      -0.67400000      -0.24000000
In       0.05576844      -0.03049510      -0.04747983       0.67600000       0.24000000
In       2.79977215      -0.09468849       3.08382477       0.73400000       0.26000000
In       0.06315532       2.93997643       2.92476771       0.67600000       0.24000000
In       2.78250694       2.98744353      -0.17881252       0.73400000       0.26000000
In      -0.09163472      -0.07336373       5.94435438       0.65600000       0.23000000
In       2.92568911      -0.07395539       8.82239972       0.68200000       0.25000000
In      -0.09216747       2.98571350       8.73366543       0.65600000       0.23000000
In       2.93750272       2.96177483       5.85839304       0.68200000       0.25000000
In      -0.03992259       5.89276367      -0.02570889       0.65600000       0.23000000
In       2.96421386       5.86810458       2.98654115       0.68200000       0.25000000
In      -0.03730858       8.80996265       2.92999932       0.65600000       0.23000000
In       2.93341303       8.84089279      -0.07599867       0.68200000       0.25000000
In      -0.04614440       5.90554432       5.87515874       0.68000000       0.24000000
In       2.89486698       5.90352413       8.83019145       0.68600000       0.24000000
In      -0.06733591       8.78864560       8.81298260       0.68000000       0.24000000
In       2.89778860       8.79060554       5.88991726       0.68600000       0.24000000
In       6.10479571      -0.24757081      -0.18011930       0.63300000       0.22000000
In       8.89348187       0.02663649       2.93253762       0.68600000       0.24000000
In       6.20327538       3.20631250       3.09694197       0.63300000       0.22000000
In       8.89575785       2.87863521      -0.01700404       0.68600000       0.24000000
In       5.85392101       0.02679123       5.77949927       0.68700000       0.24000000
In       8.85624455      -0.07466391       8.81041070       0.67800000       0.24000000
In       5.82843434       2.85779511       8.89262239       0.68700000       0.24000000
In       8.87410154       2.98790226       5.94471200       0.67800000       0.24000000
In       5.82487144       5.87954176      -0.00365962       0.68700000       0.24000000
In       8.89036733       5.92558890       2.95272531       0.67800000       0.24000000
In       5.84922414       8.83833053       2.88239134       0.68700000       0.24000000
In       8.86179775       8.79180468      -0.03596161       0.67800000       0.24000000
In       5.93980347       5.94010387       5.98697975       0.66100000       0.23000000
In       8.80453529       5.86190735       8.89677249       0.67900000       0.24000000
In       5.93661293       8.77918138       8.71997427       0.66100000       0.23000000
In       8.81027932       8.84024420       5.83067333       0.67900000       0.24000000
P        4.01531633       0.87990387       0.59665094      -0.45200000      -0.16000000
65
Lattice="11.801682 -8e-06 -8e-06 -8e-06 11.801682 -8e-06 -8e-06 -8e-06 11.801682" Properties=species:S:1:pos:R:3:mulliken_charges:R:1:hirshfeld_charges:R:1 fermi_energy=3.718544537463 core_to_fermi_energy=15.690571930710242 config_type=Interstitial energy=-221.15718724361886 pbc="T T T"
P        1.35156976       1.44230120       4.50572301      -0.64200000      -0.23000000
P        4.25450305       1.90199992       2.47132474      -0.45200000      -0.16000000
P        1.47074454       4.45544927       1.43449707      -0.64200000      -0.23000000
P        4.49112099       4.50638683       4.50807074      -0.66200000      -0.24000000
P        1.35662286       1.47114259      10.15002834      -0.64200000      -0.23000000
P        4.38318124       1.43410668       7.31762917      -0.67600000      -0.24000000
P        1.46569276       4.43574788       7.30067677      -0.67400000      -0.24000000
P        4.37255436       4.43252266      10.28930406      -0.67200000      -0.23000000
P        1.44180843       7.32985011       4.39565007      -0.67400000      -0.24000000
P        4.36331203       7.36748192       1.44642968      -0.67600000      -0.24000000
P        1.45137119      10.27383719       1.47788550      -0.64200000      -0.23000000
P        4.38903962      10.23059421       4.42362000      -0.67200000      -0.23000000
P        1.42537588       7.37530364      10.30692618      -0.67400000      -0.24000000
P        4.38534845       7.34427695       7.36160105      -0.68100000      -0.24000000
P        1.42831148      10.26135460       7.37725317      -0.67400000      -0.24000000
P        4.45369972      10.19991619      10.18265543      -0.66200000      -0.24000000
P        7.47014766       1.51405824       4.46371363      -0.67600000      -0.24000000
P       10.37111702       1.43987810       1.44749455      -0.67700000      -0.24000000
P        7.47944299       4.51490818       1.37632497      -0.67600000      -0.24000000
P       10.33738915       4.40008657       4.39003293      -0.67400000      -0.24000000
P        7.41848557       1.41569072      10.28038076      -0.67600000      -0.24000000
P       10.27139948       1.43733300       7.36071205      -0.68000000      -0.24000000
P        7.33322902       4.37275127       7.46189952      -0.67500000      -0.24000000
P       10.31062525       4.39750189      10.31767730      -0.67600000      -0.24000000
P        7.33973981       7.36602438       4.37690784      -0.67500000      -0.24000000
P       10.32268715       7.36403338       1.44963187      -0.68000000      -0.24000000
P        7.44058062      10.27445412       1.48512727      -0.67600000      -0.24000000
P       10.29825271      10.29022113       4.39408878      -0.67600000      -0.24000000
P        7.33149751       7.35553208      10.32887482      -0.67500000      -0.24000000
P       10.23989492       7.32611236       7.35075343      -0.67500000      -0.24000000
P        7.35510559      10.34208588       7.26752590      -0.67500000      -0.24000000
P       10.33436369      10.28448292      10.32116204      -0.67400000      -0.24000000
In       0.04928286      -0.02519486      -0.04927277       0.67600000       0.24000000
In       2.79870066      -0.11194146       3.10720898       0.73400000       0.26000000
In       0.04665011       2.93415826       2.91256710       0.67600000       0.24000000
In       2.76340299       3.01116418      -0.19035009       0.73400000       0.26000000
In      -0.09034640      -0.07634219       5.93963380       0.65600000       0.23000000
In       2.92010871      -0.06290636       8.82386986       0.68200000       0.25000000
In      -0.09241369       2.99140281       8.72266543       0.65600000       0.23000000
In       2.93926925       2.94735069       5.83832417       0.68200000       0.25000000
In      -0.04179121       5.89458034      -0.02657051       0.65600000       0.23000000
In       2.97408982       5.86601658       2.98002750       0.68200000       0.25000000
In      -0.03474759       8.81234090       2.92949813       0.65600000       0.23000000
In       2.93344502       8.85355009      -0.06936485       0.68200000       0.25000000
In      -0.04276056       5.89871985       5.86469251       0.68000000       0.24000000
In       2.88593195       5.90984338       8.82666940       0.68600000       0.24000000
In      -0.06947078       8.78622603       8.81522265       0.68000000       0.24000000
In       2.88778273       8.77948437       5.90005336       0.68600000       0.24000000
In       6.08166760      -0.24322978      -0.17835190       0.63300000       0.22000000
In       8.88341572       0.03007340       2.94557177       0.68600000       0.24000000
In       6.22039042       3.23038140       3.09891972       0.63300000       0.22000000
In       8.88974290       2.87578309      -0.02135026       0.68600000       0.24000000
In       5.85994902       0.01684810       5.77818682       0.68700000       0.24000000
In       8.85861017      -0.07573777       8.81480385       0.67800000       0.24000000
In       5.82245804       2.85904850       8.89476511       0.68700000       0.24000000
In       8.87656680       2.98950963       5.95807906       0.67800000       0.24000000
In       5.82349329       5.89254004      -0.01046442       0.68700000       0.24000000
In       8.89382303       5.93139095       2.95102661       0.67800000       0.24000000
In       5.85690504       8.83953009       2.88358816       0.68700000       0.24000000
In       8.85725577       8.79530307      -0.03346134       0.67800000       0.24000000
In       5.93985799       5.93648096       5.98697439       0.66100000       0.23000000
In       8.80749577       5.86406419       8.90139236       0.67900000       0.24000000
In       5.93829065       8.77834774       8.71731649       0.66100000       0.23000000
In       8.81729721       8.83077093       5.83550382       0.67900000       0.24000000