63
Lattice="11.8016818 -7.6e-06 -7.6e-06 -7.6e-06 11.8016818 -7.8e-06 -7.6e-06 -7.8e-06 11.8016816" Properties=species:S:1:pos:R:3:mulliken_charges:R:1 virial="-0.001343979365248383 3.847269175329341e-05 3.847269175329341e-05 3.847269175329341e-05 -0.001345261788306826 3.847269175329341e-05 3.847269175329341e-05 3.847269175329341e-05 -0.0013426969421899398" fermi_energy=3.4539138232004998 core_to_fermi_energy=15.43004959127955 config_type=Accurate_Bulk energy=-218.19650024567332 pbc="T T T"
P        1.45183497       1.45183491       4.38922491      -0.67500000
P        4.38922504       1.45183511       1.45183507      -0.67500000
P        1.45183504       4.38922508       1.45183493      -0.67500000
In      -0.00710032      -0.00710030      -0.00710031       0.67500000
In       2.95710531      -0.02417771       2.95710523       0.67500000
In      -0.02417762       2.95710522       2.95710511       0.67500000
In       2.95710529       2.95710531      -0.02417771       0.67500000
P        1.47365256       1.47365243      10.33702876      -0.67500000
P        4.46203247       1.45182464       7.39942384      -0.67500000
P        1.45182485       4.46203229       7.39942370      -0.67500000
P        4.42562104       4.42562087      10.32646861      -0.67500000
In      -0.00909434      -0.00909448       5.91763081       0.67500000
In       2.93362015      -0.00909654       8.86035081       0.67500000
In      -0.00909638       2.93362006       8.86035078       0.67500000
In       2.71533763       2.71533738       6.13592575       0.67500000
P        1.45182478       7.39942387       4.46203229      -0.67500000
P        4.46203248       7.39942395       1.45182460      -0.67500000
P        1.47365255      10.33702893       1.47365239      -0.67500000
P        4.42562104      10.32646878       4.42562079      -0.67500000
In      -0.00909433       5.91763091      -0.00909447       0.67500000
In       2.71533762       6.13592594       2.71533742       0.67500000
In      -0.00909639       8.86035094       2.93362001       0.67500000
In       2.93362015       8.86035096      -0.00909654       0.67500000
P        1.47364558       7.37759328      10.31590933      -0.67500000
P        4.38920968       7.39941287       7.39941276      -0.67500000
P        1.47364557      10.31590950       7.37759317      -0.67500000
P        4.42561514      10.32645914      10.32645896      -0.67500000
In      -0.02418670       5.89415552       5.89415547       0.67500000
In       2.95709559       5.89414729       8.87543809       0.67500000
In      -0.00711427       8.85835730       8.85835716       0.67500000
In       2.95709561       8.87543824       5.89414722       0.67500000
P        7.39942392       1.45182473       4.46203249      -0.67500000
P       10.33702890       1.47365256       1.47365253      -0.67500000
P        7.39942386       4.46203249       1.45182475      -0.67500000
P       10.32646894       4.42562097       4.42562089      -0.67500000
In       5.91763084      -0.00909428      -0.00909428       0.67500000
In       8.86035092      -0.00909637       2.93362017       0.67500000
In       6.13592601       2.71533758       2.71533762       0.67500000
In       8.86035091       2.93362022      -0.00909636       0.67500000
P        7.37759346       1.47364540      10.31590952      -0.67500000
P       10.31590967       1.47364545       7.37759336      -0.67500000
P        7.39941306       4.38920951       7.39941289      -0.67500000
P       10.32645924       4.42561502      10.32645906      -0.67500000
In       5.89415563      -0.02418692       5.89415560       0.67500000
In       8.85835747      -0.00711444       8.85835734       0.67500000
In       5.89414752       2.95709537       8.87543821       0.67500000
In       8.87543846       2.95709550       5.89414735       0.67500000
P        7.39941311       7.39941306       4.38920937      -0.67500000
P       10.31590967       7.37759348       1.47364542      -0.67500000
P        7.37759347      10.31590970       1.47364536      -0.67500000
P       10.32645924      10.32645924       4.42561494      -0.67500000
In       5.89415565       5.89415567      -0.02418691       0.67500000
In       8.87543846       5.89414740       2.95709540       0.67500000
In       5.89414749       8.87543836       2.95709529       0.67500000
In       8.85835747       8.85835748      -0.00711445       0.67500000
P        7.37759034       7.37759020      10.33701384      -0.67500000
P       10.33701418       7.37759022       7.37759010      -0.67500000
P        7.37759034      10.33701402       7.37759009      -0.67500000
P       10.32645791      10.32645774      10.32645757      -0.67500000
In       6.13591075       6.13591050       6.13591030       0.67500000
In       8.86033709       5.91761885       8.86033681       0.67500000
In       5.91761894       8.86033693       8.86033678       0.67500000
In       8.86033710       8.86033697       5.91761875       0.67500000
63
Lattice="11.8016818 -7.6e-06 -7.6e-06 -7.6e-06 11.8016818 -7.8e-06 -7.6e-06 -7.8e-06 11.8016816" Properties=species:S:1:pos:R:3:mulliken_charges:R:1 virial="-0.001343979365248383 3.847269175329341e-05 3.847269175329341e-05 3.847269175329341e-05 -0.001345261788306826 3.847269175329341e-05 3.847269175329341e-05 3.847269175329341e-05 -0.0013426969421899398" fermi_energy=3.4539138232004998 core_to_fermi_energy=15.43004959127955 config_type=Accurate_Bulk energy=-215.03801824361247 pbc="T T T"
P        1.86153449       1.22546051       4.27606589      -0.67500000
P        4.27606537       1.22546053       1.86153492      -0.67500000
P        1.55767179       4.27255015       1.55767266      -0.67500000
In      -0.20162208      -0.15555209      -0.20162311       0.67500000
In       3.53432847       3.27726424       3.53432902       0.67500000
In       0.19200684       2.77495829       3.07301328       0.67500000
In       3.07301246       2.77495875       0.19200720       0.67500000
P        1.49372414       1.33384265      10.39163627      -0.67500000
P        4.43464764       1.08012844       7.73559751      -0.67500000
P        1.47004723       4.19028949       7.34788400      -0.67500000
P        4.46667340       4.29269327      10.43446152      -0.67500000
In       0.11701657       0.00717847       5.99871290       0.67500000
In       2.68349982      -0.34357700       8.91776115       0.67500000
In      -0.00120291       2.83102086       8.92023681       0.67500000
In       3.10017141       2.47603408       6.17205681       0.67500000
P        1.61678757       7.41449391       4.54961984      -0.67500000
P        4.54961973       7.41449089       1.61678903      -0.67500000
P        1.00633203       9.68203797       1.00633056      -0.67500000
P        3.86286752      11.15783480       3.86286572      -0.67500000
In       0.00799910       5.81951856       0.00799822       0.67500000
In       3.15004763       5.87385327       3.15005018       0.67500000
In      -0.09727423       8.60219171       3.04410314       0.67500000
In       3.04410433       8.60218909      -0.09727344       0.67500000
P        1.52511201       7.15436795      10.20401745      -0.67500000
P        4.24713241       7.44791244       7.42858147      -0.67500000
P        1.41913637      10.03585400       7.27614443      -0.67500000
P        4.44741555      10.27668021      10.39811464      -0.67500000
In       0.06827432       5.86661472       5.93554274       0.67500000
In       2.97875451       5.62445112       8.82928295       0.67500000
In      -0.04777656       8.67326746       8.86175534       0.67500000
In       3.26770909       9.20097310       5.60092106       0.67500000
P        7.73559780       1.08013319       4.43464626      -0.67500000
P       10.39163747       1.33384270       1.49372359      -0.67500000
P        7.34788561       4.19029046       1.47004517      -0.67500000
P       10.43446143       4.29269449       4.46667398      -0.67500000
In       5.99871190       0.00717856       0.11701752       0.67500000
In       8.91776088      -0.34357520       2.68350083       0.67500000
In       6.17205649       2.47603776       3.10016897       0.67500000
In       8.92023804       2.83102028      -0.00120408       0.67500000
P        7.35354139       1.43978413      10.25152236      -0.67500000
P       10.25152208       1.43978410       7.35354268      -0.67500000
P        6.82442901       4.32669190       6.82442968      -0.67500000
P       10.26618805       4.41300688      10.26618720      -0.67500000
In       5.63291475       0.17347752       5.63291184       0.67500000
In       8.62747853      -0.08965076       8.62747952       0.67500000
In       5.83895189       2.91767227       8.76600869       0.67500000
In       8.76600987       2.91767408       5.83895398       0.67500000
P        7.42858122       7.44791078       4.24713315      -0.67500000
P       10.20401889       7.15436833       1.52511117      -0.67500000
P        7.27614562      10.03585476       1.41913612      -0.67500000
P       10.39811323      10.27668107       4.44741628      -0.67500000
In       5.93554273       5.86661455       0.06827335       0.67500000
In       8.82928375       5.62445187       2.97875337       0.67500000
In       5.60092212       9.20097135       3.26770762       0.67500000
In       8.86175609       8.67326789      -0.04777671       0.67500000
P        7.37253912       7.21820575      10.27073160      -0.67500000
P       10.27073197       7.21820560       7.37253865      -0.67500000
P        7.13480837      10.28792284       7.13480889      -0.67500000
P       10.12626567      10.21537005      10.12626515      -0.67500000
In       5.53133470       6.36435523       5.53133578       0.67500000
In       8.54216130       5.63271509       8.54216105       0.67500000
In       5.88976258       8.81677165       8.81751078       0.67500000
In       8.81750967       8.81677152       5.88976295       0.67500000
63
Lattice="11.8016818 -7.6e-06 -7.6e-06 -7.6e-06 11.8016818 -7.8e-06 -7.6e-06 -7.8e-06 11.8016816" Properties=species:S:1:pos:R:3:mulliken_charges:R:1 virial="-0.001343979365248383 3.847269175329341e-05 3.847269175329341e-05 3.847269175329341e-05 -0.001345261788306826 3.847269175329341e-05 3.847269175329341e-05 3.847269175329341e-05 -0.0013426969421899398" fermi_energy=3.4539138232004998 core_to_fermi_energy=15.43004959127955 config_type=Accurate_Bulk energy=-215.03802016944599 pbc="T T T"
P        1.86357501       1.23174635       4.27805241      -0.67500000
P        4.27805239       1.23174646       1.86357500      -0.67500000
P        1.56003927       4.27924897       1.56003939      -0.67500000
In      -0.19940502      -0.14903178      -0.19940521       0.67500000
In       3.53655083       3.28343388       3.53655087       0.67500000
In       0.19414794       2.78158802       3.07515833       0.67500000
In       3.07515827       2.78158809       0.19414797       0.67500000
P        1.49597187       1.34035668      10.39393144      -0.67500000
P        4.43688230       1.08651503       7.73775926      -0.67500000
P        1.47213729       4.19660837       7.34985662      -0.67500000
P        4.46876935       4.29926264      10.43645374      -0.67500000
In       0.11883080       0.01409167       6.00052719       0.67500000
In       2.68603896      -0.33712700       8.92041387       0.67500000
In       0.00101860       2.83737192       8.92238895       0.67500000
In       3.10217690       2.48211674       6.17415390       0.67500000
P        1.61887866       7.42104429       4.55161933      -0.67500000
P        4.55161930       7.42104350       1.61887902      -0.67500000
P        1.00823695       9.68813967       1.00823655      -0.67500000
P        3.86542850      11.16361378       3.86542777      -0.67500000
In       0.01005873       5.82574498       0.01005841       0.67500000
In       3.15302517       5.88021936       3.15302587       0.67500000
In      -0.09526257       8.60824708       3.04602006       0.67500000
In       3.04602043       8.60824648      -0.09526241       0.67500000
P        1.52710135       7.16056999      10.20594451      -0.67500000
P        4.24935323       7.45425936       7.43042982      -0.67500000
P        1.42076486      10.04305613       7.27869410      -0.67500000
P        4.44967995      10.28268653      10.40048426      -0.67500000
In       0.07045179       5.87313273       5.93752158       0.67500000
In       2.98089440       5.63084641       8.83112334       0.67500000
In      -0.04575709       8.67970024       8.86399258       0.67500000
In       3.26901285       9.20751297       5.60380382       0.67500000
P        7.73775944       1.08651636       4.43688183      -0.67500000
P       10.39393183       1.34035681       1.49597182      -0.67500000
P        7.34985720       4.19660875       1.47213669      -0.67500000
P       10.43645396       4.29926288       4.46876936      -0.67500000
In       6.00052700       0.01409185       0.11883094       0.67500000
In       8.92041389      -0.33712650       2.68603923       0.67500000
In       6.17415393       2.48211783       3.10217618       0.67500000
In       8.92238945       2.83737188       0.00101829       0.67500000
P        7.35575545       1.44636945      10.25354981      -0.67500000
P       10.25354992       1.44636943       7.35575565      -0.67500000
P        6.82663001       4.33300707       6.82663008      -0.67500000
P       10.26824569       4.41926332      10.26824529      -0.67500000
In       5.63516169       0.17969625       5.63516077       0.67500000
In       8.62949580      -0.08326381       8.62949592       0.67500000
In       5.84106521       2.92412840       8.76817322       0.67500000
In       8.76817370       2.92412890       5.84106564       0.67500000
P        7.43042994       7.45425897       4.24935334      -0.67500000
P       10.20594511       7.16057018       1.52710105      -0.67500000
P        7.27869463      10.04305646       1.42076458      -0.67500000
P       10.40048413      10.28268681       4.44968005      -0.67500000
In       5.93752174       5.87313284       0.07045150       0.67500000
In       8.83112380       5.63084665       2.98089404       0.67500000
In       5.60380444       9.20751240       3.26901213       0.67500000
In       8.86399303       8.67970044      -0.04575725       0.67500000
P        7.37474677       7.22454430      10.27287733      -0.67500000
P       10.27287763       7.22454427       7.37474650      -0.67500000
P        7.13686355      10.29415775       7.13686352      -0.67500000
P       10.12837610      10.22196508      10.12837573      -0.67500000
In       5.53316749       6.37011961       5.53316762       0.67500000
In       8.54422486       5.63896965       8.54422462       0.67500000
In       5.89190948       8.82290263       8.81963542       0.67500000
In       8.81963535       8.82290263       5.89190947       0.67500000
63
Lattice="11.8016818 -7.6e-06 -7.6e-06 -7.6e-06 11.8016818 -7.8e-06 -7.6e-06 -7.8e-06 11.8016816" Properties=species:S:1:pos:R:3:mulliken_charges:R:1 virial="-0.001343979365248383 3.847269175329341e-05 3.847269175329341e-05 3.847269175329341e-05 -0.001345261788306826 3.847269175329341e-05 3.847269175329341e-05 3.847269175329341e-05 -0.0013426969421899398" fermi_energy=3.4539138232004998 core_to_fermi_energy=15.43004959127955 config_type=Accurate_Bulk energy=-215.0380199673441 pbc="T T T"
P        1.87615907       1.26958328       4.29052715      -0.67500000
P        4.29052727       1.26958342       1.87615895      -0.67500000
P        1.57307357       4.31770412       1.57307341      -0.67500000
In      -0.18668220      -0.11078997      -0.18668210       0.67500000
In       3.54938850       3.32114482       3.54938845       0.67500000
In       0.20687555       2.81991590       3.08785040       0.67500000
In       3.08785060       2.81991602       0.20687530       0.67500000
P        1.50877851       1.37859035      10.40682609      -0.67500000
P        4.44973728       1.12452169       7.75055072      -0.67500000
P        1.48476074       4.23449376       7.36225864      -0.67500000
P        4.48136056       4.33751651      10.44896278      -0.67500000
In       0.13104601       0.05280473       6.01276210       0.67500000
In       2.69924270      -0.29900100       8.93383202       0.67500000
In       0.01379356       2.87534765       8.93505079       0.67500000
In       3.11470861       2.51962582       6.18679555       0.67500000
P        1.63146601       7.45934332       4.56405137      -0.67500000
P        4.56405149       7.45934337       1.63146586      -0.67500000
P        1.02046176       9.72569349       1.02046168      -0.67500000
P        3.87878717      11.20075294       3.87878684      -0.67500000
In       0.02263059       5.86348531       0.02263044       0.67500000
In       3.16694454       5.91822721       3.16694439       0.67500000
In      -0.08281961       8.64579923       3.05835160       0.67500000
In       3.05835172       8.64579933      -0.08281968       0.67500000
P        1.53956347       7.19826704      10.21831282      -0.67500000
P        4.26214842       7.49216018       7.44266815      -0.67500000
P        1.43272543      10.08219449       7.29198396      -0.67500000
P        4.46251203      10.32016585      10.41345831      -0.67500000
In       0.08321670       5.91133619       5.94993092       0.67500000
In       2.99357621       5.66883284       8.84336168       0.67500000
In      -0.03325264       8.71773103       8.87682003       0.67500000
In       3.28051342       9.24573380       5.61758095       0.67500000
P        7.75055085       1.12452189       4.44973711      -0.67500000
P       10.40682621       1.37859049       1.50877860      -0.67500000
P        7.36225890       4.23449395       1.48476068      -0.67500000
P       10.44896310       4.33751643       4.48136036      -0.67500000
In       6.01276219       0.05280495       0.13104601       0.67500000
In       8.93383207      -0.29900094       2.69924265       0.67500000
In       6.18679567       2.51962607       3.11470849       0.67500000
In       8.93505101       2.87534778       0.01379353       0.67500000
P        7.36855963       1.48461433      10.26607983      -0.67500000
P       10.26608004       1.48461434       7.36855949      -0.67500000
P        6.83943922       4.37088472       6.83943905      -0.67500000
P       10.28079119       4.45708953      10.28079096      -0.67500000
In       5.64805417       0.21754082       5.64805393       0.67500000
In       8.64197284      -0.04531267       8.64197269       0.67500000
In       5.85374547       2.96224608       8.78096398       0.67500000
In       8.78096424       2.96224615       5.85374537       0.67500000
P        7.44266834       7.49216018       4.26214826      -0.67500000
P       10.21831312       7.19826716       1.53956335      -0.67500000
P        7.29198422      10.08219461       1.43272514      -0.67500000
P       10.41345851      10.32016593       4.46251184      -0.67500000
In       5.94993120       5.91133635       0.08321662       0.67500000
In       8.84336203       5.66883292       2.99357614       0.67500000
In       5.61758126       9.24573378       3.28051309       0.67500000
In       8.87682039       8.71773118      -0.03325280       0.67500000
P        7.38749516       7.26247075      10.28556635      -0.67500000
P       10.28556665       7.26247078       7.38749487      -0.67500000
P        7.14938620      10.33191024       7.14938597      -0.67500000
P       10.14098388      10.26023253      10.14098354      -0.67500000
In       5.54540464       6.40714514       5.54540446       0.67500000
In       8.55680119       5.67679855       8.55680090       0.67500000
In       5.90456485       8.86052386       8.83227806       0.67500000
In       8.83227828       8.86052389       5.90456462       0.67500000
63
Lattice="11.8016818 -7.6e-06 -7.6e-06 -7.6e-06 11.8016818 -7.8e-06 -7.6e-06 -7.8e-06 11.8016816" Properties=species:S:1:pos:R:3:mulliken_charges:R:1 virial="-0.001343979365248383 3.847269175329341e-05 3.847269175329341e-05 3.847269175329341e-05 -0.001345261788306826 3.847269175329341e-05 3.847269175329341e-05 3.847269175329341e-05 -0.0013426969421899398" fermi_energy=3.4539138232004998 core_to_fermi_energy=15.43004959127955 config_type=Accurate_Bulk energy=-215.03790000326654 pbc="T T T"
P        1.89134255       1.31587875       4.30456588      -0.67500000
P        4.30456601       1.31587889       1.89134242      -0.67500000
P        1.59214767       4.36954250       1.59214750      -0.67500000
In      -0.17037905      -0.06109135      -0.17037895       0.67500000
In       3.56657116       3.36635437       3.56657110       0.67500000
In       0.22313928       2.87043926       3.10359682       0.67500000
In       3.10359703       2.87043938       0.22313902       0.67500000
P        1.52582723       1.42813977      10.42435558      -0.67500000
P        4.46763531       1.17285729       7.76793569      -0.67500000
P        1.50026636       4.28098583       7.37581097      -0.67500000
P        4.49633424       4.38748354      10.46350540      -0.67500000
In       0.14364884       0.10626641       6.02492787       0.67500000
In       2.72018844      -0.25023532       8.95593918       0.67500000
In       0.03045181       2.92275706       8.95076425       0.67500000
In       3.12953211       2.56287620       6.20236843       0.67500000
P        1.64655590       7.50944767       4.57795175      -0.67500000
P        4.57795187       7.50944773       1.64655574      -0.67500000
P        1.03272237       9.76980617       1.03272230      -0.67500000
P        3.90069940      11.24121449       3.90069908      -0.67500000
In       0.03763624       5.90895314       0.03763609       0.67500000
In       3.19405356       5.96603214       3.19405340       0.67500000
In      -0.06882234       8.68978918       3.07133410       0.67500000
In       3.07133421       8.68978929      -0.06882242       0.67500000
P        1.55355548       7.24345449      10.23173134      -0.67500000
P        4.27903507       7.53892716       7.45495019      -0.67500000
P        1.44297595      10.13934185       7.31327908      -0.67500000
P        4.47996741      10.36344757      10.43204200      -0.67500000
In       0.09982705       5.96059747       5.96366066       0.67500000
In       3.00924037       5.71646079       8.85559680       0.67500000
In      -0.01887053       8.76555875       8.89386985       0.67500000
In       3.28653336       9.29513478       5.64271053       0.67500000
P        7.76793582       1.17285748       4.46763514      -0.67500000
P       10.42435570       1.42813991       1.52582732      -0.67500000
P        7.37581123       4.28098601       1.50026630      -0.67500000
P       10.46350572       4.38748345       4.49633404      -0.67500000
In       6.02492798       0.10626663       0.14364884       0.67500000
In       8.95593923      -0.25023527       2.72018839       0.67500000
In       6.20236855       2.56287644       3.12953199       0.67500000
In       8.95076448       2.92275720       0.03045178       0.67500000
P        7.38557959       1.53394383      10.28114665      -0.67500000
P       10.28114687       1.53394383       7.38557945      -0.67500000
P        6.85666636       4.41773892       6.85666618      -0.67500000
P       10.29547357       4.50340919      10.29547335      -0.67500000
In       5.66601438       0.26476560       5.66601416       0.67500000
In       8.65639316       0.00185377       8.65639300       0.67500000
In       5.87041386       3.01142408       8.79846309       0.67500000
In       8.79846336       3.01142414       5.87041374       0.67500000
P        7.45495039       7.53892717       4.27903491      -0.67500000
P       10.23173164       7.24345461       1.55355536      -0.67500000
P        7.31327935      10.13934196       1.44297565      -0.67500000
P       10.43204221      10.36344765       4.47996721      -0.67500000
In       5.96366095       5.96059763       0.09982697       0.67500000
In       8.85559715       5.71646087       3.00924029       0.67500000
In       5.64271083       9.29513477       3.28653303       0.67500000
In       8.89387021       8.76555889      -0.01887069       0.67500000
P        7.40382577       7.30956618      10.30139471      -0.67500000
P       10.30139502       7.30956621       7.40382548      -0.67500000
P        7.16402903      10.37777189       7.16402880      -0.67500000
P       10.15639581      10.30997724      10.15639547      -0.67500000
In       5.55770621       6.44644848       5.55770602       0.67500000
In       8.57148786       5.72308194       8.57148757       0.67500000
In       5.92027808       8.90515064       8.84779107       0.67500000
In       8.84779130       8.90515067       5.92027785       0.67500000
63
Lattice="11.8016818 -7.6e-06 -7.6e-06 -7.6e-06 11.8016818 -7.8e-06 -7.6e-06 -7.8e-06 11.8016816" Properties=species:S:1:pos:R:3:mulliken_charges:R:1 virial="-0.001343979365248383 3.847269175329341e-05 3.847269175329341e-05 3.847269175329341e-05 -0.001345261788306826 3.847269175329341e-05 3.847269175329341e-05 3.847269175329341e-05 -0.0013426969421899398" fermi_energy=3.4539138232004998 core_to_fermi_energy=15.43004959127955 config_type=Accurate_Bulk energy=-215.03365713004706 pbc="T T T"
P        1.89615199       1.32613525       4.29570495      -0.67500000
P        4.29570510       1.32613538       1.89615187      -0.67500000
P        1.61388023       4.41314029       1.61388003      -0.67500000
In      -0.16113233      -0.03261604      -0.16113220       0.67500000
In       3.57712310       3.37388590       3.57712304       0.67500000
In       0.22991435       2.90473536       3.10635543       0.67500000
In       3.10635568       2.90473547       0.22991410       0.67500000
P        1.53878629       1.45474005      10.43611565      -0.67500000
P        4.48999953       1.20236484       7.78643548      -0.67500000
P        1.50417274       4.29015265       7.36702083      -0.67500000
P        4.49434589       4.42047615      10.46219002      -0.67500000
In       0.13704341       0.15663293       6.00538546       0.67500000
In       2.76284973      -0.22594048       8.99525472       0.67500000
In       0.04048887       2.93762643       8.95413245       0.67500000
In       3.12968918       2.55298198       6.20583407       0.67500000
P        1.64536472       7.54120636       4.57034785      -0.67500000
P        4.57034798       7.54120643       1.64536454      -0.67500000
P        1.02105171       9.77109394       1.02105164      -0.67500000
P        3.94432337      11.21623832       3.94432306      -0.67500000
In       0.03705579       5.91512886       0.03705564       0.67500000
In       3.25924538       5.98922493       3.25924519       0.67500000
In      -0.07666953       8.68827690       3.05926354       0.67500000
In       3.05926364       8.68827702      -0.07666961       0.67500000
P        1.54614438       7.24804123      10.22203484      -0.67500000
P        4.28949805       7.55130336       7.43820515      -0.67500000
P        1.42078671      10.21274545       7.35006478      -0.67500000
P        4.49809510      10.35658561      10.45353558      -0.67500000
In       0.10916665       5.98680845       5.95728165       0.67500000
In       3.01148891       5.73517108       8.83883083       0.67500000
In      -0.02210884       8.78539913       8.90242298       0.67500000
In       3.23341984       9.32031695       5.69990213       0.67500000
P        7.78643561       1.20236500       4.48999938      -0.67500000
P       10.43611572       1.45474016       1.53878640      -0.67500000
P        7.36702109       4.29015282       1.50417270      -0.67500000
P       10.46219035       4.42047606       4.49434568      -0.67500000
In       6.00538557       0.15663316       0.13704338       0.67500000
In       8.99525472      -0.22594048       2.76284968       0.67500000
In       6.20583420       2.55298221       3.12968910       0.67500000
In       8.95413266       2.93762657       0.04048886       0.67500000
P        7.39809202       1.55616622      10.28714060      -0.67500000
P       10.28714084       1.55616622       7.39809185      -0.67500000
P        6.87586537       4.43319713       6.87586518      -0.67500000
P       10.29453752       4.51174537      10.29453730      -0.67500000
In       5.68585591       0.28816182       5.68585571       0.67500000
In       8.65684884       0.01580178       8.65684866       0.67500000
In       5.88864007       3.04309149       8.82190264       0.67500000
In       8.82190290       3.04309155       5.88863994       0.67500000
P        7.43820535       7.55130339       4.28949787      -0.67500000
P       10.22203514       7.24804135       1.54614426      -0.67500000
P        7.35006501      10.21274553       1.42078641      -0.67500000
P       10.45353581      10.35658569       4.49809490      -0.67500000
In       5.95728195       5.98680860       0.10916656       0.67500000
In       8.83883119       5.73517116       3.01148883       0.67500000
In       5.69990240       9.32031695       3.23341953       0.67500000
In       8.90242332       8.78539927      -0.02210901       0.67500000
P        7.40970903       7.32548424      10.30538387      -0.67500000
P       10.30538419       7.32548427       7.40970874      -0.67500000
P        7.16425973      10.38772515       7.16425949      -0.67500000
P       10.16081868      10.33817626      10.16081834      -0.67500000
In       5.54796115       6.41365296       5.54796095       0.67500000
In       8.57381079       5.73453390       8.57381050       0.67500000
In       5.92491918       8.90615758       8.84925229       0.67500000
In       8.84925253       8.90615760       5.92491895       0.67500000
63