63
Lattice="11.8016818 -7.6e-06 -7.6e-06 -7.6e-06 11.8016818 -7.8e-06 -7.6e-06 -7.8e-06 11.8016816" Properties=species:S:1:pos:R:3:mulliken_charges:R:1 virial="-0.001343979365248383 3.847269175329341e-05 3.847269175329341e-05 3.847269175329341e-05 -0.001345261788306826 3.847269175329341e-05 3.847269175329341e-05 3.847269175329341e-05 -0.0013426969421899398" fermi_energy=3.4539138232004998 core_to_fermi_energy=15.43004959127955 config_type=Accurate_Bulk energy=-218.19650024567332 pbc="T T T"
P        1.45183497       1.45183491       4.38922491      -0.67500000
P        4.38922504       1.45183511       1.45183507      -0.67500000
P        1.45183504       4.38922508       1.45183493      -0.67500000
In      -0.00710032      -0.00710030      -0.00710031       0.67500000
In       2.95710531      -0.02417771       2.95710523       0.67500000
In      -0.02417762       2.95710522       2.95710511       0.67500000
In       2.95710529       2.95710531      -0.02417771       0.67500000
P        1.47365256       1.47365243      10.33702876      -0.67500000
P        4.46203247       1.45182464       7.39942384      -0.67500000
P        1.45182485       4.46203229       7.39942370      -0.67500000
P        4.42562104       4.42562087      10.32646861      -0.67500000
In      -0.00909434      -0.00909448       5.91763081       0.67500000
In       2.93362015      -0.00909654       8.86035081       0.67500000
In      -0.00909638       2.93362006       8.86035078       0.67500000
In       2.71533763       2.71533738       6.13592575       0.67500000
P        1.45182478       7.39942387       4.46203229      -0.67500000
P        4.46203248       7.39942395       1.45182460      -0.67500000
P        1.47365255      10.33702893       1.47365239      -0.67500000
P        4.42562104      10.32646878       4.42562079      -0.67500000
In      -0.00909433       5.91763091      -0.00909447       0.67500000
In       2.71533762       6.13592594       2.71533742       0.67500000
In      -0.00909639       8.86035094       2.93362001       0.67500000
In       2.93362015       8.86035096      -0.00909654       0.67500000
P        1.47364558       7.37759328      10.31590933      -0.67500000
P        4.38920968       7.39941287       7.39941276      -0.67500000
P        1.47364557      10.31590950       7.37759317      -0.67500000
P        4.42561514      10.32645914      10.32645896      -0.67500000
In      -0.02418670       5.89415552       5.89415547       0.67500000
In       2.95709559       5.89414729       8.87543809       0.67500000
In      -0.00711427       8.85835730       8.85835716       0.67500000
In       2.95709561       8.87543824       5.89414722       0.67500000
P        7.39942392       1.45182473       4.46203249      -0.67500000
P       10.33702890       1.47365256       1.47365253      -0.67500000
P        7.39942386       4.46203249       1.45182475      -0.67500000
P       10.32646894       4.42562097       4.42562089      -0.67500000
In       5.91763084      -0.00909428      -0.00909428       0.67500000
In       8.86035092      -0.00909637       2.93362017       0.67500000
In       6.13592601       2.71533758       2.71533762       0.67500000
In       8.86035091       2.93362022      -0.00909636       0.67500000
P        7.37759346       1.47364540      10.31590952      -0.67500000
P       10.31590967       1.47364545       7.37759336      -0.67500000
P        7.39941306       4.38920951       7.39941289      -0.67500000
P       10.32645924       4.42561502      10.32645906      -0.67500000
In       5.89415563      -0.02418692       5.89415560       0.67500000
In       8.85835747      -0.00711444       8.85835734       0.67500000
In       5.89414752       2.95709537       8.87543821       0.67500000
In       8.87543846       2.95709550       5.89414735       0.67500000
P        7.39941311       7.39941306       4.38920937      -0.67500000
P       10.31590967       7.37759348       1.47364542      -0.67500000
P        7.37759347      10.31590970       1.47364536      -0.67500000
P       10.32645924      10.32645924       4.42561494      -0.67500000
In       5.89415565       5.89415567      -0.02418691       0.67500000
In       8.87543846       5.89414740       2.95709540       0.67500000
In       5.89414749       8.87543836       2.95709529       0.67500000
In       8.85835747       8.85835748      -0.00711445       0.67500000
P        7.37759034       7.37759020      10.33701384      -0.67500000
P       10.33701418       7.37759022       7.37759010      -0.67500000
P        7.37759034      10.33701402       7.37759009      -0.67500000
P       10.32645791      10.32645774      10.32645757      -0.67500000
In       6.13591075       6.13591050       6.13591030       0.67500000
In       8.86033709       5.91761885       8.86033681       0.67500000
In       5.91761894       8.86033693       8.86033678       0.67500000
In       8.86033710       8.86033697       5.91761875       0.67500000
63
Lattice="11.8016818 -7.6e-06 -7.6e-06 -7.6e-06 11.8016818 -7.8e-06 -7.6e-06 -7.8e-06 11.8016816" Properties=species:S:1:pos:R:3:mulliken_charges:R:1 virial="-0.001343979365248383 3.847269175329341e-05 3.847269175329341e-05 3.847269175329341e-05 -0.001345261788306826 3.847269175329341e-05 3.847269175329341e-05 3.847269175329341e-05 -0.0013426969421899398" fermi_energy=3.4539138232004998 core_to_fermi_energy=15.43004959127955 config_type=Accurate_Bulk energy=-218.05242322765235 pbc="T T T"
P        1.79497267       1.79497260       4.38241561      -0.67500000
P        4.38003532       1.36567809       1.32041321      -0.67500000
P        1.36567812       4.38003534       1.32041319      -0.67500000
In       0.00971392       0.00971391       0.03934484       0.67500000
In       3.00833087      -0.00625996       2.97597749       0.67500000
In      -0.00625987       3.00833077       2.97597739       0.67500000
In       2.93161604       2.93161605      -0.07200957       0.67500000
P        1.44526681       1.44526666      10.30391720      -0.67500000
P        4.51166012       1.39583000       7.47433176      -0.67500000
P        1.39583012       4.51166004       7.47433168      -0.67500000
P        4.44307580       4.44307561      10.35361614      -0.67500000
In       0.23155509       0.23155495       5.80096985       0.67500000
In       2.93169828      -0.07193851       8.89258757       0.67500000
In      -0.07193832       2.93169816       8.89258754       0.67500000
In       3.01398489       3.01398476       6.30005007       0.67500000
P        1.51357569       7.40395169       4.42699108      -0.67500000
P        4.44882467       7.31499750       1.57739366      -0.67500000
P        1.50117145      10.34392822       1.50900983      -0.67500000
P        4.47209429      10.33724094       4.45668297      -0.67500000
In      -0.02195066       5.99152169      -0.11268000       0.67500000
In       2.67688545       5.93765715       2.73595241       0.67500000
In       0.00766340       8.87607240       2.96001476       0.67500000
In       2.98862830       8.81904401       0.08726306       0.67500000
P        1.52579693       7.44523744      10.28698967      -0.67500000
P        4.42079524       7.34802504       7.32374428      -0.67500000
P        1.46046163      10.34599942       7.34696495      -0.67500000
P        4.44503162      10.26012551      10.33461008      -0.67500000
In       0.02132084       5.96986418       5.88765154       0.67500000
In       2.99330176       5.90909823       8.87518198       0.67500000
In      -0.00794375       8.89018865       8.84553382       0.67500000
In       2.96389842       8.89343546       5.90483428       0.67500000
P        7.40395172       1.51357569       4.42699119      -0.67500000
P       10.34392820       1.50117143       1.50900997      -0.67500000
P        7.31499746       4.44882465       1.57739379      -0.67500000
P       10.33724105       4.47209418       4.45668305      -0.67500000
In       5.99152166      -0.02195069      -0.11267994       0.67500000
In       8.87607240       0.00766337       2.96001491       0.67500000
In       5.93765711       2.67688537       2.73595248       0.67500000
In       8.81904398       2.98862828       0.08726321       0.67500000
P        7.44523759       1.52579676      10.28698978      -0.67500000
P       10.34599959       1.46046152       7.34696510      -0.67500000
P        7.34802530       4.42079513       7.32374445      -0.67500000
P       10.26012569       4.44503146      10.33461025      -0.67500000
In       5.96986428       0.02132077       5.88765165       0.67500000
In       8.89018884      -0.00794388       8.84553396       0.67500000
In       5.90909844       2.99330158       8.87518201       0.67500000
In       8.89343563       2.96389830       5.90483440       0.67500000
P        7.52518991       7.52518982       4.35585253      -0.67500000
P       10.35380056       7.40219978       1.45785751      -0.67500000
P        7.40219974      10.35380056       1.45785746      -0.67500000
P       10.43816239      10.43816236       4.45879903      -0.67500000
In       5.89845149       5.89845145       0.03448379       0.67500000
In       8.90122090       5.91571936       2.93581888       0.67500000
In       5.91571945       8.90122077       2.93581884       0.67500000
In       8.87278940       8.87278942      -0.00186498       0.67500000
P        7.37449408       7.37449398      10.36563371      -0.67500000
P       10.33341090       7.39177168       7.39216701      -0.67500000
P        7.39177178      10.33341083       7.39216697      -0.67500000
P       10.35083382      10.35083367      10.34707084      -0.67500000
In       6.18745063       6.18745038       5.95711063       0.67500000
In       8.80054670       5.90704395       8.83171444       0.67500000
In       5.90704405       8.80054649       8.83171426       0.67500000
In       8.96214797       8.96214788       5.94162325       0.67500000
63
Lattice="11.8016818 -7.6e-06 -7.6e-06 -7.6e-06 11.8016818 -7.8e-06 -7.6e-06 -7.8e-06 11.8016816" Properties=species:S:1:pos:R:3:mulliken_charges:R:1 virial="-0.001343979365248383 3.847269175329341e-05 3.847269175329341e-05 3.847269175329341e-05 -0.001345261788306826 3.847269175329341e-05 3.847269175329341e-05 3.847269175329341e-05 -0.0013426969421899398" fermi_energy=3.4539138232004998 core_to_fermi_energy=15.43004959127955 config_type=Accurate_Bulk energy=-217.71576168947536 pbc="T T T"
P        2.06181915       2.06181908       4.28899779      -0.67500000
P        4.38214733       1.33490955       1.18365486      -0.67500000
P        1.33490956       4.38214734       1.18365482      -0.67500000
In       0.03021335       0.03021330       0.13173372       0.67500000
In       3.10888879       0.05529785       2.95936786       0.67500000
In       0.05529794       3.10888870       2.95936778       0.67500000
In       2.93779313       2.93779313      -0.17761973       0.67500000
P        1.40766550       1.40766535      10.27976932      -0.67500000
P        4.47465699       1.36289403       7.45769569      -0.67500000
P        1.36289414       4.47465691       7.45769560      -0.67500000
P        4.48947174       4.48947160      10.32020338      -0.67500000
In       0.29836952       0.29836935       5.76428837       0.67500000
In       2.90416836      -0.10831095       8.88370551       0.67500000
In      -0.10831075       2.90416823       8.88370545       0.67500000
In       3.24787706       3.24787693       6.31543652       0.67500000
P        1.57911093       7.33775793       4.40276644      -0.67500000
P        4.41427121       7.26112888       1.69127600      -0.67500000
P        1.53340541      10.34867713       1.58507912      -0.67500000
P        4.46891643      10.32424138       4.47428284      -0.67500000
In      -0.03006873       6.04222253      -0.18429044       0.67500000
In       2.68997670       5.68228726       2.79871833       0.67500000
In       0.02737891       8.83730632       2.99429158       0.67500000
In       3.00624156       8.79891183       0.15716713       0.67500000
P        1.57158457       7.46954411      10.25003709      -0.67500000
P        4.43182634       7.33220874       7.30667598      -0.67500000
P        1.42821811      10.32040387       7.33202030      -0.67500000
P        4.42714470      10.23612180      10.34187269      -0.67500000
In       0.03525833       5.97588587       5.87946388       0.67500000
In       2.98325661       5.87369018       8.80289125       0.67500000
In      -0.03368917       8.87488414       8.84997057       0.67500000
In       2.95249880       8.86855238       5.91589367       0.67500000
P        7.33775797       1.57911094       4.40276654      -0.67500000
P       10.34867715       1.53340536       1.58507926      -0.67500000
P        7.26112892       4.41427117       1.69127608      -0.67500000
P       10.32424148       4.46891635       4.47428293      -0.67500000
In       6.04222250      -0.03006874      -0.18429039       0.67500000
In       8.83730632       0.02737887       2.99429172       0.67500000
In       5.68228729       2.68997666       2.79871838       0.67500000
In       8.79891186       3.00624151       0.15716724       0.67500000
P        7.46954425       1.57158443      10.25003717      -0.67500000
P       10.32040405       1.42821797       7.33202044      -0.67500000
P        7.33220898       4.43182621       7.30667612      -0.67500000
P       10.23612199       4.42714454      10.34187283      -0.67500000
In       5.97588595       0.03525829       5.87946395       0.67500000
In       8.87488429      -0.03368929       8.84997071       0.67500000
In       5.87369034       2.98325648       8.80289128       0.67500000
In       8.86855257       2.95249867       5.91589378       0.67500000
P        7.51164683       7.51164674       4.39469764      -0.67500000
P       10.35891949       7.40138986       1.45607442      -0.67500000
P        7.40138979      10.35891949       1.45607437      -0.67500000
P       10.44796781      10.44796779       4.46805480      -0.67500000
In       5.90179079       5.90179073       0.13458077       0.67500000
In       8.89261081       5.93484127       2.95674002       0.67500000
In       5.93484133       8.89261069       2.95673998       0.67500000
In       8.87928346       8.87928350       0.00369567       0.67500000
P        7.35755078       7.35755067      10.40536151      -0.67500000
P       10.30841332       7.36612447       7.40605530      -0.67500000
P        7.36612455      10.30841327       7.40605523      -0.67500000
P       10.37665075      10.37665062      10.38388256      -0.67500000
In       6.07856976       6.07856950       5.84401208       0.67500000
In       8.76962553       5.88984654       8.85890183       0.67500000
In       5.88984667       8.76962534       8.85890168       0.67500000
In       8.96414773       8.96414766       5.94330756       0.67500000
63
Lattice="11.8016818 -7.6e-06 -7.6e-06 -7.6e-06 11.8016818 -7.8e-06 -7.6e-06 -7.8e-06 11.8016816" Properties=species:S:1:pos:R:3:mulliken_charges:R:1 virial="-0.001343979365248383 3.847269175329341e-05 3.847269175329341e-05 3.847269175329341e-05 -0.001345261788306826 3.847269175329341e-05 3.847269175329341e-05 3.847269175329341e-05 -0.0013426969421899398" fermi_energy=3.4539138232004998 core_to_fermi_energy=15.43004959127955 config_type=Accurate_Bulk energy=-217.29396460501306 pbc="T T T"
P        2.41463457       2.41463451       4.08845350      -0.67500000
P        4.37933341       1.32688505       1.13066038      -0.67500000
P        1.32688506       4.37933343       1.13066033      -0.67500000
In       0.04441768       0.04441764       0.16857037       0.67500000
In       3.14670227       0.10341218       2.95878149       0.67500000
In       0.10341228       3.14670219       2.95878141       0.67500000
In       2.94207310       2.94207312      -0.21197250       0.67500000
P        1.39230293       1.39230278      10.25093859      -0.67500000
P        4.44392497       1.36142987       7.42016767      -0.67500000
P        1.36142998       4.44392489       7.42016759      -0.67500000
P        4.51321739       4.51321726      10.29347774      -0.67500000
In       0.16999395       0.16999376       5.88151931       0.67500000
In       2.90240213      -0.11748048       8.87849986       0.67500000
In      -0.11748029       2.90240199       8.87849980       0.67500000
In       3.37673884       3.37673872       6.28277350       0.67500000
P        1.61835420       7.29051604       4.38684585      -0.67500000
P        4.39011665       7.25601667       1.73404676      -0.67500000
P        1.54877656      10.35826795       1.61729905      -0.67500000
P        4.45656224      10.33238517       4.46877244      -0.67500000
In      -0.04112708       6.05155783      -0.19901590       0.67500000
In       2.69968526       5.53327317       2.84472685       0.67500000
In       0.04360788       8.81198316       2.99749519       0.67500000
In       3.00825854       8.79898829       0.17146122       0.67500000
P        1.57913622       7.47039725      10.24689456      -0.67500000
P        4.43654072       7.33759269       7.31994551      -0.67500000
P        1.44905178      10.26622597       7.35539677      -0.67500000
P        4.42253361      10.22891590      10.33887901      -0.67500000
In       0.03537729       5.97156448       5.87111971       0.67500000
In       2.96842607       5.86316862       8.77510729       0.67500000
In      -0.04930279       8.86036706       8.86249482       0.67500000
In       2.96742038       8.83953741       5.90857769       0.67500000
P        7.29051610       1.61835421       4.38684595      -0.67500000
P       10.35826798       1.54877652       1.61729919      -0.67500000
P        7.25601672       4.39011662       1.73404683      -0.67500000
P       10.33238528       4.45656216       4.46877253      -0.67500000
In       6.05155779      -0.04112708      -0.19901585       0.67500000
In       8.81198318       0.04360784       2.99749533       0.67500000
In       5.53327325       2.69968521       2.84472686       0.67500000
In       8.79898831       3.00825849       0.17146131       0.67500000
P        7.47039738       1.57913608      10.24689463      -0.67500000
P       10.26622615       1.44905164       7.35539689      -0.67500000
P        7.33759291       4.43654059       7.31994563      -0.67500000
P       10.22891609       4.42253344      10.33887915      -0.67500000
In       5.97156456       0.03537725       5.87111977       0.67500000
In       8.86036721      -0.04930290       8.86249494       0.67500000
In       5.86316876       2.96842595       8.77510732       0.67500000
In       8.83953760       2.96742025       5.90857780       0.67500000
P        7.48983028       7.48983019       4.41760298      -0.67500000
P       10.35425583       7.39813098       1.45818371      -0.67500000
P        7.39813091      10.35425584       1.45818367      -0.67500000
P       10.42816192      10.42816188       4.44019333      -0.67500000
In       5.89353596       5.89353590       0.19566025       0.67500000
In       8.88895547       5.94035961       2.96870008       0.67500000
In       5.94035968       8.88895534       2.96870004       0.67500000
In       8.87861640       8.87861645       0.00550706       0.67500000
P        7.33999107       7.33999095      10.42951323      -0.67500000
P       10.29721343       7.35184565       7.40870098      -0.67500000
P        7.35184572      10.29721339       7.40870090      -0.67500000
P       10.38833651      10.38833638      10.40741442      -0.67500000
In       6.02909374       6.02909350       5.84178279       0.67500000
In       8.76264543       5.89183151       8.87527767       0.67500000
In       5.89183166       8.76264526       8.87527753       0.67500000
In       8.95942874       8.95942867       5.93155400       0.67500000
63
Lattice="11.8016818 -7.6e-06 -7.6e-06 -7.6e-06 11.8016818 -7.8e-06 -7.6e-06 -7.8e-06 11.8016816" Properties=species:S:1:pos:R:3:mulliken_charges:R:1 virial="-0.001343979365248383 3.847269175329341e-05 3.847269175329341e-05 3.847269175329341e-05 -0.001345261788306826 3.847269175329341e-05 3.847269175329341e-05 3.847269175329341e-05 -0.0013426969421899398" fermi_energy=3.4539138232004998 core_to_fermi_energy=15.43004959127955 config_type=Accurate_Bulk energy=-217.23506887631873 pbc="T T T"
P        2.79853077       2.79853070       3.90756188      -0.67500000
P        4.37075556       1.33010155       1.09337531      -0.67500000
P        1.33010154       4.37075559       1.09337527      -0.67500000
In       0.05224608       0.05224604       0.18208873       0.67500000
In       3.13046017       0.18031431       2.97947696       0.67500000
In       0.18031444       3.13046007       2.97947690       0.67500000
In       2.94435262       2.94435265      -0.25806138       0.67500000
P        1.38194630       1.38194616      10.20792255      -0.67500000
P        4.41776231       1.34328437       7.37146962      -0.67500000
P        1.34328448       4.41776222       7.37146955      -0.67500000
P        4.52031463       4.52031451      10.24276558      -0.67500000
In       0.04400823       0.04400797       6.01721332       0.67500000
In       2.90996933      -0.12999441       8.86680390       0.67500000
In      -0.12999423       2.90996918       8.86680382       0.67500000
In       3.44083790       3.44083778       6.28797126       0.67500000
P        1.64985696       7.25607798       4.36653739      -0.67500000
P        4.37185823       7.24547820       1.75143009      -0.67500000
P        1.54944497      10.36744135       1.64437607      -0.67500000
P        4.42661438      10.35004648       4.45902125      -0.67500000
In      -0.06050078       6.05017650      -0.20126263       0.67500000
In       2.71574722       5.46762571       2.83862715       0.67500000
In       0.05078304       8.78776605       2.98996670       0.67500000
In       2.99501317       8.80514067       0.18101739       0.67500000
P        1.57573974       7.46714097      10.25327768      -0.67500000
P        4.43473169       7.35320543       7.36019523      -0.67500000
P        1.47582190      10.22324920       7.36795601      -0.67500000
P        4.41561527      10.22039987      10.34447755      -0.67500000
In       0.01686214       5.98960806       5.85618229       0.67500000
In       2.93611337       5.85262558       8.75331522       0.67500000
In      -0.05739748       8.85415010       8.86986608       0.67500000
In       2.98702115       8.80970954       5.89967312       0.67500000
P        7.25607806       1.64985696       4.36653748      -0.67500000
P       10.36744137       1.54944495       1.64437620      -0.67500000
P        7.24547826       4.37185821       1.75143015      -0.67500000
P       10.35004659       4.42661430       4.45902134      -0.67500000
In       6.05017646      -0.06050078      -0.20126257       0.67500000
In       8.78776608       0.05078299       2.98996683       0.67500000
In       5.46762580       2.71574717       2.83862716       0.67500000
In       8.80514068       2.99501311       0.18101747       0.67500000
P        7.46714110       1.57573959      10.25327774      -0.67500000
P       10.22324941       1.47582175       7.36795609      -0.67500000
P        7.35320562       4.43473155       7.36019534      -0.67500000
P       10.22040006       4.41561509      10.34447768      -0.67500000
In       5.98960815       0.01686211       5.85618234       0.67500000
In       8.85415026      -0.05739759       8.86986618       0.67500000
In       5.85262570       2.93611324       8.75331526       0.67500000
In       8.80970972       2.98702103       5.89967322       0.67500000
P        7.46318386       7.46318378       4.44143473      -0.67500000
P       10.33465635       7.37958748       1.47060942      -0.67500000
P        7.37958740      10.33465638       1.47060938      -0.67500000
P       10.43781973      10.43781967       4.40611879      -0.67500000
In       5.87624120       5.87624114       0.21526413       0.67500000
In       8.87523672       5.92776163       2.99270871       0.67500000
In       5.92776169       8.87523660       2.99270865       0.67500000
In       8.87548183       8.87548189       0.01982234       0.67500000
P        7.32587953       7.32587939      10.45418411      -0.67500000
P       10.28642186       7.34775614       7.40718774      -0.67500000
P        7.34775621      10.28642183       7.40718766      -0.67500000
P       10.39091587      10.39091575      10.42653168      -0.67500000
In       6.02630143       6.02630122       5.92849854       0.67500000
In       8.76648894       5.89963043       8.90417796       0.67500000
In       5.89963059       8.76648876       8.90417783       0.67500000
In       8.96497621       8.96497614       5.90077740       0.67500000
63
Lattice="11.8016818 -7.6e-06 -7.6e-06 -7.6e-06 11.8016818 -7.8e-06 -7.6e-06 -7.8e-06 11.8016816" Properties=species:S:1:pos:R:3:mulliken_charges:R:1 virial="-0.001343979365248383 3.847269175329341e-05 3.847269175329341e-05 3.847269175329341e-05 -0.001345261788306826 3.847269175329341e-05 3.847269175329341e-05 3.847269175329341e-05 -0.0013426969421899398" fermi_energy=3.4539138232004998 core_to_fermi_energy=15.43004959127955 config_type=Accurate_Bulk energy=-217.22105961178056 pbc="T T T"
P        2.95076936       2.95076928       3.89366833      -0.67500000
P        4.34736118       1.31654353       1.11460391      -0.67500000
P        1.31654348       4.34736117       1.11460395      -0.67500000
In       0.04688422       0.04688418       0.20382595       0.67500000
In       3.05165542       0.27495196       3.05843259       0.67500000
In       0.27495207       3.05165522       3.05843262       0.67500000
In       2.93271870       2.93271877      -0.25027804       0.67500000
P        1.37257352       1.37257338      10.21377412      -0.67500000
P        4.40405398       1.33603141       7.35634187      -0.67500000
P        1.33603152       4.40405391       7.35634181      -0.67500000
P        4.50339423       4.50339411      10.22804051      -0.67500000
In       0.06941911       0.06941881       5.97551428       0.67500000
In       2.90329644      -0.13183745       8.86055906       0.67500000
In      -0.13183728       2.90329629       8.86055896       0.67500000
In       3.49182484       3.49182472       6.30969299       0.67500000
P        1.62870509       7.27218835       4.38194499      -0.67500000
P        4.37271360       7.25129577       1.72589789      -0.67500000
P        1.56140462      10.37260947       1.65643619      -0.67500000
P        4.39798005      10.36412929       4.43599320      -0.67500000
In      -0.07104321       6.02982226      -0.18861793       0.67500000
In       2.68811958       5.54018052       2.80719841       0.67500000
In       0.04452428       8.78229289       2.96846809       0.67500000
In       2.98555163       8.81108347       0.16811641       0.67500000
P        1.56047807       7.45589915      10.26245028      -0.67500000
P        4.43063603       7.36265334       7.38357145      -0.67500000
P        1.47057968      10.23133056       7.35178614      -0.67500000
P        4.41039692      10.22116861      10.33794514      -0.67500000
In      -0.00990046       5.97797075       5.85524724       0.67500000
In       2.91659323       5.84397045       8.75099907       0.67500000
In      -0.05299021       8.85767266       8.85967845       0.67500000
In       2.99560475       8.81373793       5.90471266       0.67500000
P        7.27218841       1.62870511       4.38194506      -0.67500000
P       10.37260948       1.56140461       1.65643629      -0.67500000
P        7.25129580       4.37271359       1.72589795      -0.67500000
P       10.36412940       4.39797999       4.43599326      -0.67500000
In       6.02982228      -0.07104322      -0.18861789       0.67500000
In       8.78229295       0.04452424       2.96846822       0.67500000
In       5.54018058       2.68811953       2.80719841       0.67500000
In       8.81108345       2.98555160       0.16811647       0.67500000
P        7.45589930       1.56047791      10.26245031      -0.67500000
P       10.23133077       1.47057953       7.35178619      -0.67500000
P        7.36265351       4.43063589       7.38357154      -0.67500000
P       10.22116880       4.41039674      10.33794526      -0.67500000
In       5.97797085      -0.00990048       5.85524729       0.67500000
In       8.85767285      -0.05299032       8.85967853       0.67500000
In       5.84397056       2.91659310       8.75099911       0.67500000
In       8.81373811       2.99560465       5.90471275       0.67500000
P        7.44136688       7.44136681       4.46049100      -0.67500000
P       10.31656126       7.36438501       1.47199038      -0.67500000
P        7.36438496      10.31656129       1.47199035      -0.67500000
P       10.45302084      10.45302078       4.38273399      -0.67500000
In       5.86149795       5.86149791       0.19164133       0.67500000
In       8.85971822       5.91781916       3.00475311       0.67500000
In       5.91781922       8.85971812       3.00475307       0.67500000
In       8.87964072       8.87964078       0.01405553       0.67500000
P        7.32280344       7.32280328      10.45683326      -0.67500000
P       10.28052154       7.35644657       7.40108212      -0.67500000
P        7.35644663      10.28052151       7.40108204      -0.67500000
P       10.39470976      10.39470965      10.41895634      -0.67500000
In       6.00542796       6.00542776       5.96820295       0.67500000
In       8.77250737       5.90813599       8.91027992       0.67500000
In       5.90813617       8.77250719       8.91027982       0.67500000
In       8.97483333       8.97483327       5.87413227       0.67500000
63