4
Lattice="4.266007 -4.4e-05 0.0 2.132965 3.694492 0.0 0.0 0.0 7.005705" Properties=species:S:1:pos:R:3:mulliken_charges:R:1:forces:R:3 virial="-2.857677480954819 -0.00014058872859539932 0.0 -0.00014058872859539932 -2.8575155282527605 -3.4458021714558664e-06 0.0 -3.4458021714558664e-06 -2.8710788947600445" fermi_energy=2.90998545843 core_to_fermi_energy=15.342607711985716 config_type=EOS energy=-3929.840318101 stress="0.0258810854319514 1.2732678616801845e-06 -0.0 1.2732678616801845e-06 0.02587961867730682 3.1207545629416294e-08 -0.0 3.1207545629416294e-08 0.026002457818413323" pbc="T T T"
P        2.13296720       1.23147405      -0.00009107      -0.66000000      -0.00008000      -0.00005000      -0.01939000
P        4.26600053       2.46298134       3.50276143      -0.66000000       0.00008000       0.00005000      -0.01940000
In       2.13298000       1.23148144       2.62323720       0.66000000      -0.00004000      -0.00002000       0.01940000
In       4.26598773       2.46297395       6.12608970       0.66000000       0.00004000       0.00003000       0.01939000
4
Lattice="3.755444 -3.9e-05 0.0 1.877688 3.252329 0.0 0.0 0.0 6.16725" Properties=species:S:1:pos:R:3:mulliken_charges:R:1:forces:R:3 virial="19.63019596771607 -0.0004311306163099293 4.701533438494322e-07 -0.0004311306163099293 19.630680695813574 -1.504490700318183e-05 4.701533438494322e-07 -1.504490700318183e-05 19.8651870717322" fermi_energy=7.1416006506405 core_to_fermi_energy=17.12212477331694 config_type=EOS energy=-3927.231406401 stress="-0.26060018263874046 5.723463868434947e-06 -6.241509125883258e-09 5.723463868434947e-06 -0.2606066176346492 1.9972829202826425e-07 -6.241509125883258e-09 1.9972829202826425e-07 -0.26371980124702116" pbc="T T T"
P        1.87769001       1.08408908      -0.00008017      -0.74000000       0.00001000      -0.00001000       0.12770000
P        3.75543823       2.16820743       3.08354483      -0.74000000      -0.00000000      -0.00001000       0.12770000
In       1.87770128       1.08409558       2.30928359       0.74000000       0.00003000       0.00002000      -0.12770000
In       3.75542697       2.16820092       5.39290859       0.74000000      -0.00003000      -0.00000000      -0.12770000
4
Lattice="4.22161 -4.4e-05 0.0 2.110767 3.656043 0.0 0.0 0.0 6.932796" Properties=species:S:1:pos:R:3:mulliken_charges:R:1:forces:R:3 virial="-1.688112899891044 -7.346538083999039e-05 4.0072025912722035e-06 -7.346538083999039e-05 -1.6880360951747115 -0.0 4.0072025912722035e-06 -0.0 -1.6927058219277407" fermi_energy=3.2443589511660003 core_to_fermi_energy=15.475585394215695 config_type=EOS energy=-3929.91212392 stress="0.015776150813746788 6.865660038471584e-07 -3.744905475529955e-08 6.865660038471584e-07 0.015775433040197313 0.0 -3.744905475529955e-08 0.0 0.01581907367200549" pbc="T T T"
P        2.11076911       1.21865780      -0.00009013      -0.67000000      -0.00004000      -0.00003000      -0.01162000
P        4.22160366       2.43734851       3.46630787      -0.67000000       0.00004000       0.00003000      -0.01162000
In       2.11078178       1.21866511       2.59593693       0.67000000      -0.00001000      -0.00001000       0.01162000
In       4.22159100       2.43734120       6.06233493       0.67000000       0.00001000       0.00001000       0.01162000
4
Lattice="4.931959 -5.1e-05 0.0 2.465935 4.271227 0.0 0.0 0.0 8.099342" Properties=species:S:1:pos:R:3:mulliken_charges:R:1:forces:R:3 virial="-10.596395743862756 -0.0012193251670344065 -0.0 -0.0012193251670344065 -10.594983669477179 0.0 -0.0 0.0 -10.627774464711521" fermi_energy=-0.289148171697 core_to_fermi_energy=14.673686573652915 config_type=EOS energy=-3926.408980567 stress="0.062106024209937084 7.1465279491363305e-06 0.0 7.1465279491363305e-06 0.06209774796883617 -0.0 0.0 -0.0 0.06228993651784037" pbc="T T T"
P        2.46593754       1.42371537      -0.00010529      -0.52000000      -0.00029000      -0.00017000      -0.05134000
P        4.93195153       2.84746918       4.04956571      -0.52000000       0.00029000       0.00017000      -0.05134000
In       2.46595234       1.42372391       3.03274192       0.52000000      -0.00018000      -0.00010000       0.05135000
In       4.93193673       2.84746063       7.08241292       0.52000000       0.00018000       0.00010000       0.05134000
4
Lattice="4.90976 -5.1e-05 0.0 2.454836 4.252002 0.0 0.0 0.0 8.062888" Properties=species:S:1:pos:R:3:mulliken_charges:R:1:forces:R:3 virial="-10.537573467768834 -0.0012964379178162172 -0.0 -0.0012964379178162172 -10.536072163243258 0.0 -0.0 0.0 -10.568866579454468" fermi_energy=-0.2205482713725 core_to_fermi_energy=14.67378208561251 config_type=EOS energy=-3926.552249112 stress="0.06260278592126614 7.702022261339941e-06 0.0 7.702022261339941e-06 0.06259386680472526 -0.0 0.0 -0.0 0.0627886955120897" pbc="T T T"
P        2.45483833       1.41730708      -0.00010482      -0.52000000      -0.00030000      -0.00017000      -0.05127000
P        4.90975276       2.83465243       4.03133918      -0.52000000       0.00030000       0.00017000      -0.05126000
In       2.45485306       1.41731558       3.01909197       0.52000000      -0.00021000      -0.00012000       0.05126000
In       4.90973803       2.83464392       7.05053597       0.52000000       0.00021000       0.00012000       0.05127000
4
Lattice="3.289277 -3.4e-05 0.0 1.644609 2.848614 0.0 0.0 0.0 5.401704" Properties=species:S:1:pos:R:3:mulliken_charges:R:1:forces:R:3 virial="69.20032611894695 -0.0024729073959901546 6.318107807844034e-07 -0.0024729073959901546 69.20318064005454 3.159053903922017e-07 6.318107807844034e-07 3.159053903922017e-07 70.50190781994147" fermi_energy=12.533672546238002 core_to_fermi_energy=20.022614819125668 config_type=EOS energy=-3910.585897565 stress="-1.3672272779178478 4.885853343741414e-05 -1.2483018251766515e-08 4.885853343741414e-05 -1.3672836761943095 -6.241509125883258e-09 -1.2483018251766515e-08 -6.241509125883258e-09 -1.3929433128824744" pbc="T T T"
P        1.64461058       0.94952002      -0.00007022      -0.74000000       0.00160000       0.00093000       0.58441000
P        3.28927213       1.89906568       2.70078178      -0.74000000      -0.00160000      -0.00093000       0.58445000
In       1.64462044       0.94952572       2.02263025       0.74000000       0.00039000       0.00023000      -0.58440000
In       3.28926227       1.89905998       4.72348225       0.74000000      -0.00039000      -0.00023000      -0.58446000
4
Lattice="2.823111 -2.9e-05 0.0 1.41153 2.4449 0.0 0.0 0.0 4.636159" Properties=species:S:1:pos:R:3:mulliken_charges:R:1:forces:R:3 virial="180.41080968736694 0.02089477374830118 -1.5978262405980867e-06 0.02089477374830118 180.38643544725147 -9.986414003738042e-07 -1.5978262405980867e-06 -9.986414003738042e-07 186.8162322435081" fermi_energy=21.542572824037503 core_to_fermi_energy=25.97712535168595 config_type=EOS energy=-3855.685196979 stress="-5.6378381401482 -0.0006529617187134029 4.993207300706606e-08 -0.0006529617187134029 -5.637076445099005 3.1207545629416294e-08 4.993207300706606e-08 3.1207545629416294e-08 -5.838007607007518" pbc="T T T"
P        1.41153147       0.81495130      -0.00006027      -0.62000000      -0.00703000      -0.00410000       1.93916000
P        2.82310670       1.62992459       2.31801923      -0.62000000       0.00703000       0.00410000       1.93917000
In       1.41153994       0.81495619       1.73597728       0.62000000      -0.00283000      -0.00166000      -1.93918000
In       2.82309823       1.62991970       4.05405678       0.62000000       0.00283000       0.00166000      -1.93916000
4
Lattice="4.421396 -4.6e-05 0.0 2.210658 3.829063 0.0 0.0 0.0 7.260887" Properties=species:S:1:pos:R:3:mulliken_charges:R:1:forces:R:3 virial="-6.129046532280708 -0.002463622307626477 1.5344891358620226e-06 -0.002463622307626477 -6.126180106574918 -0.0 1.5344891358620226e-06 -0.0 -6.164685809705672" fermi_energy=1.9006063617870002 core_to_fermi_energy=15.010014932251396 config_type=EOS energy=-3929.347560931 stress="0.049859590361587186 2.004148580321114e-05 -1.2483018251766515e-08 2.004148580321114e-05 0.04983627208349289 0.0 -1.2483018251766515e-08 0.0 0.05014951470199359" pbc="T T T"
P        2.21066035       1.27633007      -0.00009439      -0.63000000      -0.00065000      -0.00037000      -0.03457000
P        4.42138923       2.55269459       3.63034911      -0.63000000       0.00065000       0.00037000      -0.03456000
In       2.21067361       1.27633772       2.71878831       0.63000000      -0.00069000      -0.00039000       0.03457000
In       4.42137597       2.55268693       6.34923181       0.63000000       0.00068000       0.00039000       0.03456000
4
Lattice="3.355873 -3.5e-05 0.0 1.677906 2.906288 0.0 0.0 0.0 5.511068" Properties=species:S:1:pos:R:3:mulliken_charges:R:1:forces:R:3 virial="59.50882391135315 0.002571822403556998 6.709685373224622e-07 0.002571822403556998 59.50587433366308 3.656778528407419e-05 6.709685373224622e-07 3.656778528407419e-05 60.47315029320532" fermi_energy=11.589491926857 core_to_fermi_energy=19.460301082417743 config_type=EOS energy=-3914.473913656 stress="-1.1071305041976556 -4.784740895902106e-05 -1.2483018251766515e-08 -4.784740895902106e-05 -1.1070756288494208 -6.803244947212751e-07 -1.2483018251766515e-08 -6.803244947212751e-07 -1.1250712915158774" pbc="T T T"
P        1.67790788       0.96874422      -0.00007164      -0.75000000      -0.00044000      -0.00023000       0.47255000
P        3.35586777       1.93751459       2.75546236      -0.75000000       0.00044000       0.00027000       0.47255000
In       1.67791794       0.96875003       2.06358084       0.75000000      -0.00024000      -0.00015000      -0.47255000
In       3.35585770       1.93750878       4.81911484       0.75000000       0.00024000       0.00011000      -0.47255000
4
Lattice="4.399197 -4.6e-05 0.0 2.199559 3.809839 0.0 0.0 0.0 7.224433" Properties=species:S:1:pos:R:3:mulliken_charges:R:1:forces:R:3 virial="-5.733648462521306 -0.002358684221099136 1.5114926120468671e-06 -0.002358684221099136 -5.73092626432701 1.5114926120468671e-06 1.5114926120468671e-06 1.5114926120468671e-06 -5.7672172019422545" fermi_energy=2.0360918452125003 core_to_fermi_energy=15.05172644720991 config_type=EOS energy=-3929.437392904 stress="0.04735268822117617 1.947974998188165e-05 -1.2483018251766515e-08 1.947974998188165e-05 0.04733020630530474 -1.2483018251766515e-08 -1.2483018251766515e-08 -1.2483018251766515e-08 0.04762992357352965" pbc="T T T"
P        2.19956114       1.26992211      -0.00009392      -0.64000000      -0.00059000      -0.00034000      -0.03193000
P        4.39919046       2.53987851       3.61212258      -0.64000000       0.00059000       0.00035000      -0.03192000
In       2.19957434       1.26992973       2.70513837       0.64000000      -0.00061000      -0.00035000       0.03193000
In       4.39917727       2.53987089       6.31735487       0.64000000       0.00060000       0.00035000       0.03192000
4
Lattice="3.045095 -3.2e-05 0.0 1.52252 2.637145 0.0 0.0 0.0 5.000704" Properties=species:S:1:pos:R:3:mulliken_charges:R:1:forces:R:3 virial="115.97886960347562 0.0035523850712427746 1.1279004318487608e-05 0.0035523850712427746 115.97474725271948 6.767402591092563e-06 1.1279004318487608e-05 6.767402591092563e-06 119.34157014491448" fermi_energy=16.7236543201635 core_to_fermi_energy=22.678811667333346 config_type=EOS energy=-3889.301232019 stress="-2.8880867377090613 -8.846090884114342e-05 -2.8086791066474663e-07 -8.846090884114342e-05 -2.887984083608468 -1.6852074639884795e-07 -2.8086791066474663e-07 -1.6852074639884795e-07 -2.9718241535833547" pbc="T T T"
P        1.52252159       0.87903151      -0.00006501      -0.70000000       0.00671000       0.00388000       1.14728000
P        3.04509037       1.75808676       2.50028699      -0.70000000      -0.00671000      -0.00388000       1.17278000
In       1.52253072       0.87903679       1.87247861       0.70000000       0.00372000       0.00215000      -1.16047000
In       3.04508123       1.75808149       4.37283061       0.70000000      -0.00372000      -0.00215000      -1.15959000
4
Lattice="3.067293 -3.2e-05 0.0 1.533619 2.65637 0.0 0.0 0.0 5.037159" Properties=species:S:1:pos:R:3:mulliken_charges:R:1:forces:R:3 virial="110.8630224889176 -0.008759857152549077 8.96581472509117e-06 -0.008759857152549077 110.87290742773507 5.123322700052099e-06 8.96581472509117e-06 5.123322700052099e-06 113.96807830214699" fermi_energy=16.2992111447325 core_to_fermi_energy=22.402656387507406 config_type=EOS energy=-3891.795923171 stress="-2.7011867379758985 0.00021343464606870388 -2.18452819405914e-07 0.00021343464606870388 -2.7014275853300482 -1.2483018251766518e-07 -2.18452819405914e-07 -1.2483018251766518e-07 -2.776841680400084" pbc="T T T"
P        1.53362046       0.88543980      -0.00006548      -0.70000000       0.00615000       0.00350000       1.07878000
P        3.06728847       1.77090351       2.51851402      -0.70000000      -0.00616000      -0.00350000       1.10817000
In       1.53362967       0.88544511       1.88612893       0.70000000       0.00406000       0.00229000      -1.09423000
In       3.06727927       1.77089820       4.40470843       0.70000000      -0.00406000      -0.00229000      -1.09273000
4
Lattice="4.510189 -4.7e-05 0.0 2.255054 3.905961 0.0 0.0 0.0 7.406706" Properties=species:S:1:pos:R:3:mulliken_charges:R:1:forces:R:3 virial="-7.504227595320367 -0.0027592012280096825 0.0 -0.0027592012280096825 -7.501031059068908 -0.0 0.0 -0.0 -7.542889803082263" fermi_energy=1.399318236528 core_to_fermi_energy=14.873258677169746 config_type=EOS energy=-3928.938385517 stress="0.05751162437633792 2.1146232918492477e-05 -0.0 2.1146232918492477e-05 0.05748712645301882 0.0 -0.0 0.0 0.05780792753907098" pbc="T T T"
P        2.25505619       1.30196222      -0.00009629      -0.61000000      -0.00085000      -0.00049000      -0.04362000
P        4.51018230       2.60395959       3.70325671      -0.61000000       0.00085000       0.00049000      -0.04362000
In       2.25506972       1.30197003       2.77338921       0.61000000      -0.00096000      -0.00055000       0.04362000
In       4.51016877       2.60395178       6.47674221       0.61000000       0.00096000       0.00055000       0.04362000
4
Lattice="4.443594 -4.6e-05 0.0 2.221757 3.848288 0.0 0.0 0.0 7.297342" Properties=species:S:1:pos:R:3:mulliken_charges:R:1:forces:R:3 virial="-6.503069223138563 -0.0025601095417004858 1.5577180052938763e-06 -0.0025601095417004858 -6.500111116646511 -0.0 1.5577180052938763e-06 -0.0 -6.540277654272015" fermi_energy=1.7692570088055 core_to_fermi_energy=14.971402793987432 config_type=EOS energy=-3929.252380845 stress="0.052113368099398 2.0515840496778268e-05 -1.2483018251766515e-08 2.0515840496778268e-05 0.052089662847737896 0.0 -1.2483018251766515e-08 0.0 0.052411543714868815" pbc="T T T"
P        2.22175923       1.28273835      -0.00009487      -0.63000000      -0.00070000      -0.00041000      -0.03706000
P        4.44358733       2.56551134       3.64857613      -0.63000000       0.00071000       0.00041000      -0.03706000
In       2.22177256       1.28274605       2.73243863       0.63000000      -0.00076000      -0.00044000       0.03706000
In       4.44357400       2.56550365       6.38110963       0.63000000       0.00076000       0.00044000       0.03706000
4
Lattice="4.887562 -5.1e-05 0.0 2.443737 4.232778 0.0 0.0 0.0 8.026433" Properties=species:S:1:pos:R:3:mulliken_charges:R:1:forces:R:3 virial="-10.469442743685745 -0.0013836104947949899 1.0364123556516777e-06 -0.0013836104947949899 -10.467839413771554 1.0364123556516777e-06 1.0364123556516777e-06 1.0364123556516777e-06 -10.500747578888205" fermi_energy=-0.15026126520900002 core_to_fermi_energy=14.67452114681553 config_type=EOS energy=-3926.695302076 stress="0.06304934717469571 8.33241468305415e-06 -6.241509125883258e-09 8.33241468305415e-06 0.06303969156007798 -6.241509125883258e-09 -6.241509125883258e-09 -6.241509125883258e-09 0.06323787195784301" pbc="T T T"
P        2.44373945       1.41089912      -0.00010434      -0.52000000      -0.00032000      -0.00019000      -0.05109000
P        4.88755466       2.82183634       4.01311216      -0.52000000       0.00032000       0.00018000      -0.05109000
In       2.44375411       1.41090759       3.00544165       0.52000000      -0.00025000      -0.00014000       0.05109000
In       4.88754000       2.82182788       7.01865815       0.52000000       0.00025000       0.00015000       0.05109000
4
Lattice="3.933031 -4.1e-05 0.0 1.96648 3.406125 0.0 0.0 0.0 6.458887" Properties=species:S:1:pos:R:3:mulliken_charges:R:1:forces:R:3 virial="9.224895962191889 -0.00019549985161136405 1.0261041935403086e-05 -0.00019549985161136405 9.225107123633823 0.0 1.0261041935403086e-05 0.0 9.333895230287803" fermi_energy=5.5680207077745 core_to_fermi_energy=16.429019517009767 config_type=EOS energy=-3929.205912279 stress="-0.10661375143191705 2.2594263035697395e-06 -1.185886733917819e-07 2.2594263035697395e-06 -0.10661619186198527 -0.0 -1.185886733917819e-07 -0.0 -0.10787347521879405" pbc="T T T"
P        1.96648204       1.13535339      -0.00008397      -0.72000000      -0.00000000      -0.00001000       0.05983000
P        3.93302503       2.27073743       3.22935953      -0.72000000       0.00001000       0.00001000       0.05983000
In       1.96649383       1.13536020       2.41848502       0.72000000       0.00001000       0.00001000      -0.05983000
In       3.93301323       2.27073061       5.64792852       0.72000000      -0.00002000      -0.00000000      -0.05983000
4
Lattice="4.621181 -4.8e-05 0.0 2.310549 4.002084 0.0 0.0 0.0 7.588978" Properties=species:S:1:pos:R:3:mulliken_charges:R:1:forces:R:3 virial="-8.807267157846734 -0.0026306920910725957 -0.0 -0.0026306920910725957 -8.804228239810127 0.0 -0.0 0.0 -8.82755406009284" fermi_energy=0.8575395711330001 core_to_fermi_energy=14.762438136882736 config_type=EOS energy=-3928.340084479 stress="0.06275034143851115 1.8743251905027423e-05 0.0 1.8743251905027423e-05 0.06272868964335346 -0.0 0.0 -0.0 0.06289488230684835" pbc="T T T"
P        2.31055125       1.33400266      -0.00009866      -0.58000000      -0.00093000      -0.00054000      -0.04620000
P        4.62117413       2.66804134       3.79439034      -0.58000000       0.00093000       0.00054000      -0.04621000
In       2.31056511       1.33401067       2.84163969       0.58000000      -0.00100000      -0.00058000       0.04621000
In       4.62116027       2.66803334       6.63612869       0.58000000       0.00100000       0.00058000       0.04620000
4
Lattice="4.865364 -5.1e-05 0.0 2.432638 4.213553 0.0 0.0 0.0 7.989979" Properties=species:S:1:pos:R:3:mulliken_charges:R:1:forces:R:3 virial="-10.391803877306733 -0.0014773028016818637 1.022354880056653e-06 -0.0014773028016818637 -10.390088365817997 1.022354880056653e-06 1.022354880056653e-06 1.022354880056653e-06 -10.423187105059831" fermi_energy=-0.07825994182200001 core_to_fermi_energy=14.675916002385 config_type=EOS energy=-3926.838003632 stress="0.06344229386473395 9.018980686901309e-06 -6.241509125883258e-09 9.018980686901309e-06 0.06343182061242071 -6.241509125883258e-09 -6.241509125883258e-09 -6.241509125883258e-09 0.06363388947037119" pbc="T T T"
P        2.43264057       1.40449084      -0.00010387      -0.53000000      -0.00035000      -0.00021000      -0.05083000
P        4.86535656       2.80901959       3.99488563      -0.53000000       0.00035000       0.00020000      -0.05083000
In       2.43265517       1.40449926       2.99179171       0.53000000      -0.00030000      -0.00017000       0.05083000
In       4.86534196       2.80901116       6.98678121       0.53000000       0.00030000       0.00018000       0.05083000
4
Lattice="2.911905 -3e-05 0.0 1.455926 2.521798 0.0 0.0 0.0 4.781977" Properties=species:S:1:pos:R:3:mulliken_charges:R:1:forces:R:3 virial="151.49761604663627 0.022578332103792096 -8.613501317067538e-05 0.022578332103792096 151.4714811932635 -8.76692246011963e-07 -8.613501317067538e-05 -8.76692246011963e-07 156.55698354685373" fermi_energy=19.470398682978 core_to_fermi_energy=24.581062413085682 config_type=EOS energy=-3871.248746989 stress="-4.314279075267355 -0.0006429753041119897 2.4529130864721206e-06 -0.0006429753041119897 -4.313534818994658 2.496603650353303e-08 2.4529130864721206e-06 2.496603650353303e-08 -4.458357404087768" pbc="T T T"
P        1.45592765       0.84058345      -0.00006217      -0.66000000       0.01219000       0.00708000       1.58976000
P        2.91190044       1.68118959       2.39092633      -0.66000000      -0.01228000      -0.00707000       1.60078000
In       1.45593639       0.84058849       1.79057781       0.67000000       0.00266000       0.00152000      -1.59378000
In       2.91189170       1.68118455       4.18156631       0.66000000      -0.00258000      -0.00153000      -1.59676000
4
Lattice="3.733245 -3.9e-05 0.0 1.866589 3.233104 0.0 0.0 0.0 6.130796" Properties=species:S:1:pos:R:3:mulliken_charges:R:1:forces:R:3 virial="21.186434828551086 -0.0004221448129278382 4.618652220217048e-07 -0.0004221448129278382 21.186914244651543 -1.6165282770759667e-05 4.618652220217048e-07 -1.6165282770759667e-05 21.441498049951683" fermi_energy=7.355264441734501 core_to_fermi_energy=17.224091545429186 config_type=EOS energy=-3926.866166857 stress="-0.2863071736566436 5.704739341057298e-06 -6.241509125883258e-09 5.704739341057298e-06 -0.28631365234311623 2.18452819405914e-07 -6.241509125883258e-09 2.18452819405914e-07 -0.2897540221053761" pbc="T T T"
P        1.86659080       1.07768079      -0.00007970      -0.74000000      -0.00007000      -0.00005000       0.14146000
P        3.73323947       2.15539068       3.06531830      -0.74000000       0.00007000       0.00003000       0.14145000
In       1.86660200       1.07768726       2.29563365       0.74000000       0.00000000       0.00001000      -0.14147000
In       3.73322827       2.15538421       5.36103165       0.74000000      -0.00000000       0.00001000      -0.14144000
4
Lattice="4.77657 -5e-05 0.0 2.388242 4.136655 0.0 0.0 0.0 7.84416" Properties=species:S:1:pos:R:3:mulliken_charges:R:1:forces:R:3 virial="-9.979307114672197 -0.0018980302494974964 0.0 -0.0018980302494974964 -9.977105322191127 9.673956419457167e-07 0.0 9.673956419457167e-07 -10.01092934341612" fermi_energy=0.2288749550295 core_to_fermi_energy=14.689826462141399 config_type=EOS energy=-3927.402464619 stress="0.06438517368234463 1.2245840904982954e-05 -0.0 1.2245840904982954e-05 0.06437096800757411 -6.241509125883258e-09 -0.0 -6.241509125883258e-09 0.0645891961326515" pbc="T T T"
P        2.38824440       1.37885868      -0.00010197      -0.55000000      -0.00057000      -0.00033000      -0.04917000
P        4.77656283       2.75775459       3.92197803      -0.55000000       0.00057000       0.00033000      -0.04917000
In       2.38825873       1.37886695       2.93719080       0.55000000      -0.00059000      -0.00034000       0.04917000
In       4.77654850       2.75774632       6.85927080       0.55000000       0.00059000       0.00034000       0.04917000
4
Lattice="4.976356 -5.2e-05 0.0 2.488133 4.309676 0.0 0.0 0.0 8.172251" Properties=species:S:1:pos:R:3:mulliken_charges:R:1:forces:R:3 virial="-10.687477619712997 -0.0010928372198474362 -0.0 -0.0010928372198474362 -10.686204283853233 0.0 -0.0 0.0 -10.719329613036617" fermi_energy=-0.4216948255965 core_to_fermi_energy=14.675064558163998 config_type=EOS energy=-3926.12229112 stress="0.060978233442963 6.235267616757375e-06 0.0 6.235267616757375e-06 0.06097096832634046 -0.0 0.0 -0.0 0.061159967464181335" pbc="T T T"
P        2.48813563       1.43653128      -0.00010624      -0.51000000      -0.00029000      -0.00017000      -0.05122000
P        4.97634839       2.87310134       4.08601926      -0.51000000       0.00029000       0.00017000      -0.05122000
In       2.48815056       1.43653990       3.06004218       0.51000000      -0.00015000      -0.00008000       0.05123000
In       4.97633346       2.87309272       7.14616768       0.51000000       0.00015000       0.00008000       0.05122000
4
Lattice="4.998554 -5.2e-05 0.0 2.499232 4.3289 0.0 0.0 0.0 8.208706" Properties=species:S:1:pos:R:3:mulliken_charges:R:1:forces:R:3 virial="-10.720319904196772 -0.0010421175623384696 -0.0 -0.0010421175623384696 -10.71910594810022 0.0 -0.0 0.0 -10.75252133687303" fermi_energy=-0.48577763609400004 core_to_fermi_energy=14.676427576413603 config_type=EOS energy=-3925.979119665 stress="0.060354338432248834 5.8670185783302625e-06 0.0 5.8670185783302625e-06 0.060347503979755995 -0.0 0.0 -0.0 0.060535629306319234" pbc="T T T"
P        2.49923451       1.44293923      -0.00010671      -0.50000000      -0.00031000      -0.00018000      -0.05109000
P        4.99854649       2.88591743       4.10424629      -0.50000000       0.00031000       0.00018000      -0.05109000
In       2.49924950       1.44294789       3.07369250       0.50000000      -0.00015000      -0.00009000       0.05108000
In       4.99853150       2.88590877       7.17804550       0.50000000       0.00015000       0.00008000       0.05110000
4
Lattice="2.889706 -3e-05 0.0 1.444827 2.502574 0.0 0.0 0.0 4.745522" Properties=species:S:1:pos:R:3:mulliken_charges:R:1:forces:R:3 virial="158.24089975232133 -0.019816805158243307 -1.7135894468626667e-06 -0.019816805158243307 158.26362259098275 -1.285192085147e-06 -1.7135894468626667e-06 -1.285192085147e-06 163.69320486611068" fermi_energy=20.0041499899455 core_to_fermi_energy=24.96550539752937 config_type=EOS energy=-3867.653705384 stress="-4.610962196109958 0.0005774394582902155 4.993207300706606e-08 0.0005774394582902155 -4.611624314122559 3.744905475529955e-08 4.993207300706606e-08 3.744905475529955e-08 -4.769836247007605" pbc="T T T"
P        1.44482844       0.83417549      -0.00006169      -0.66000000      -0.00312000      -0.00184000       1.66762000
P        2.88970167       1.66837351       2.37269931      -0.66000000       0.00312000       0.00185000       1.67608000
In       1.44483711       0.83418050       1.77692749       0.66000000       0.00057000       0.00029000      -1.67031000
In       2.88969300       1.66836851       4.14968849       0.66000000      -0.00057000      -0.00030000      -1.67339000
4
Lattice="4.177213 -4.4e-05 0.0 2.088569 3.617594 0.0 0.0 0.0 6.859887" Properties=species:S:1:pos:R:3:mulliken_charges:R:1:forces:R:3 virial="-0.3882360508868817 -2.1351559361487728e-05 4.52911865243679e-06 -2.1351559361487728e-05 -0.3882192284461726 -4.52911865243679e-06 4.52911865243679e-06 -4.52911865243679e-06 -0.39169241543564126" fermi_energy=3.5957667705990004 core_to_fermi_energy=15.622553265558661 config_type=EOS energy=-3929.945027384 stress="0.00374515513589499 2.0596980115414753e-07 -4.369056388118281e-08 2.0596980115414753e-07 0.0037449928566577174 4.369056388118281e-08 -4.369056388118281e-08 4.369056388118281e-08 0.0037784972776454583" pbc="T T T"
P        2.08857103       1.20584156      -0.00008918      -0.68000000      -0.00001000      -0.00002000      -0.00261000
P        4.17720680       2.41171568       3.42985432      -0.68000000       0.00002000       0.00001000      -0.00260000
In       2.08858356       1.20584879       2.56863667       0.68000000       0.00002000       0.00001000       0.00260000
In       4.17719427       2.41170844       5.99858017       0.68000000      -0.00003000      -0.00001000       0.00261000
4
Lattice="4.155015 -4.3e-05 0.0 2.07747 3.598369 0.0 0.0 0.0 6.823432" Properties=species:S:1:pos:R:3:mulliken_charges:R:1:forces:R:3 virial="0.3031005361062263 -1.1461616425624145e-05 5.094051744721843e-06 -1.1461616425624145e-05 0.30312409609554564 -5.094051744721843e-06 5.094051744721843e-06 -5.094051744721843e-06 0.30599013695841976" fermi_energy=3.778083046749 core_to_fermi_energy=15.701573765577436 config_type=EOS energy=-3929.945827314 stress="-0.002971002034484312 1.1234716426589864e-07 -4.993207300706606e-08 1.1234716426589864e-07 -0.0029712329703219698 4.993207300706606e-08 -4.993207300706606e-08 4.993207300706606e-08 -0.0029993260028975703" pbc="T T T"
P        2.07747215       1.19943360      -0.00008870      -0.69000000      -0.00001000      -0.00001000       0.00200000
P        4.15500870       2.39889959       3.41162730      -0.69000000       0.00002000       0.00001000       0.00198000
In       2.07748461       1.19944080       2.55498635       0.69000000       0.00004000       0.00002000      -0.00199000
In       4.15499623       2.39889240       5.96670235       0.69000000      -0.00004000      -0.00002000      -0.00199000
4
Lattice="4.021824 -4.2e-05 0.0 2.010876 3.483023 0.0 0.0 0.0 6.604705" Properties=species:S:1:pos:R:3:mulliken_charges:R:1:forces:R:3 virial="5.18179751486855 -9.066187758689017e-05 0.0 -9.066187758689017e-05 5.1818731626772365 5.774641884515297e-07 0.0 5.774641884515297e-07 5.239822271452536" fermi_energy=4.862973735379501 core_to_fermi_energy=16.155084141931336 config_type=EOS energy=-3929.686607918 stress="-0.05600734577889055 9.799169327636715e-07 -0.0 9.799169327636715e-07 -0.056008163416586036 -6.241509125883258e-09 -0.0 -6.241509125883258e-09 -0.05663450509887755" pbc="T T T"
P        2.01087788       1.16098554      -0.00008586      -0.71000000      -0.00002000      -0.00002000       0.03300000
P        4.02181810       2.32200243       3.30226664      -0.71000000       0.00002000       0.00002000       0.03299000
In       2.01088995       1.16099251       2.47308555       0.71000000       0.00005000       0.00002000      -0.03300000
In       4.02180603       2.32199546       5.77543805       0.71000000      -0.00005000      -0.00003000      -0.03299000
4