8
Lattice="4.283072 0.0 0.0 0.0 4.283072 0.0 0.0 0.0 4.283072" Properties=species:S:1:pos:R:3:mulliken_charges:R:1:forces:R:3 virial="247.69228596343228 -3.9232476398314235e-06 -3.432841684852496e-06 -3.9232476398314235e-06 247.69228694424422 -3.9232476398314235e-06 -3.432841684852496e-06 -3.9232476398314235e-06 247.69228645383822" fermi_energy=17.8141233426165 core_to_fermi_energy=23.572628639940213 config_type=EOS energy=-7772.715464505 stress="-3.152436563128758 4.993207300706606e-08 4.369056388118281e-08 4.993207300706606e-08 -3.1524365756117767 4.993207300706606e-08 4.369056388118281e-08 4.993207300706606e-08 -3.152436569370267" pbc="T T T"
P        1.07076800       1.07076800       3.21230400      -0.66000000       0.00000000      -0.00000000      -0.00000000
P        3.21230400       1.07076800       1.07076800      -0.66000000      -0.00000000      -0.00000000      -0.00000000
P        1.07076800       3.21230400       1.07076800      -0.66000000       0.00000000      -0.00000000      -0.00000000
P        3.21230400       3.21230400       3.21230400      -0.66000000      -0.00000000      -0.00000000      -0.00000000
In       0.00000000       0.00000000       0.00000000       0.66000000       0.00000000       0.00000000       0.00000000
In       2.14153600       0.00000000       2.14153600       0.66000000       0.00000000       0.00000000       0.00000000
In       0.00000000       2.14153600       2.14153600       0.66000000       0.00000000       0.00000000       0.00000000
In       2.14153600       2.14153600       0.00000000       0.66000000       0.00000000       0.00000000       0.00000000
8
Lattice="4.220167 0.0 0.0 0.0 4.220167 0.0 0.0 0.0 4.220167" Properties=species:S:1:pos:R:3:mulliken_charges:R:1:forces:R:3 virial="271.0604319714675 0.00012759904540433543 0.0001271299312668195 0.00012759904540433543 271.0604319714675 0.0001271299312668195 0.0001271299312668195 0.0001271299312668195 271.06043150235337" fermi_energy=18.7624400924415 core_to_fermi_energy=24.237601406382062 config_type=EOS energy=-7761.207544389 stress="-3.6064275717085787 -1.6976904822402461e-06 -1.6914489731143627e-06 -1.6976904822402461e-06 -3.6064275717085787 -1.6914489731143627e-06 -1.6914489731143627e-06 -1.6914489731143627e-06 -3.6064275654670697" pbc="T T T"
P        1.05504175       1.05504175       3.16512525      -0.64000000      -0.00005000      -0.00005000       0.00001000
P        3.16512525       1.05504175       1.05504175      -0.64000000       0.00001000      -0.00005000      -0.00005000
P        1.05504175       3.16512525       1.05504175      -0.64000000      -0.00005000       0.00001000      -0.00005000
P        3.16512525       3.16512525       3.16512525      -0.64000000       0.00001000       0.00001000       0.00001000
In       0.00000000       0.00000000       0.00000000       0.64000000      -0.00001000      -0.00001000      -0.00001000
In       2.11008350       0.00000000       2.11008350       0.64000000       0.00005000      -0.00001000       0.00005000
In       0.00000000       2.11008350       2.11008350       0.64000000      -0.00001000       0.00005000       0.00005000
In       2.11008350       2.11008350       0.00000000       0.64000000       0.00005000       0.00005000      -0.00001000
8
Lattice="5.855691 0.0 0.0 0.0 5.855691 0.0 0.0 0.0 5.855691" Properties=species:S:1:pos:R:3:mulliken_charges:R:1:forces:R:3 virial="2.088282490241417 -8.772474283066015e-06 -8.772474283066015e-06 -8.772474283066015e-06 2.088282490241417 -8.772474283066015e-06 -8.772474283066015e-06 -8.772474283066015e-06 2.088282490241417" fermi_energy=3.8894048207385 core_to_fermi_energy=15.712326072048766 config_type=EOS energy=-7859.909774034 stress="-0.010400513765879063 4.369056388118281e-08 4.369056388118281e-08 4.369056388118281e-08 -0.010400513765879063 4.369056388118281e-08 4.369056388118281e-08 4.369056388118281e-08 -0.010400513765879063" pbc="T T T"
P        1.46392275       1.46392275       4.39176825      -0.68000000      -0.00000000      -0.00000000       0.00001000
P        4.39176825       1.46392275       1.46392275      -0.68000000       0.00001000      -0.00000000      -0.00000000
P        1.46392275       4.39176825       1.46392275      -0.68000000      -0.00000000       0.00001000      -0.00000000
P        4.39176825       4.39176825       4.39176825      -0.68000000       0.00001000       0.00001000       0.00001000
In       0.00000000       0.00000000       0.00000000       0.68000000       0.00000000       0.00000000       0.00000000
In       2.92784550       0.00000000       2.92784550       0.68000000      -0.00001000       0.00000000      -0.00001000
In       0.00000000       2.92784550       2.92784550       0.68000000       0.00000000      -0.00001000      -0.00001000
In       2.92784550       2.92784550       0.00000000       0.68000000      -0.00001000      -0.00001000       0.00000000
8
Lattice="6.516191 0.0 0.0 0.0 6.516191 0.0 0.0 0.0 6.516191" Properties=species:S:1:pos:R:3:mulliken_charges:R:1:forces:R:3 virial="-17.205294716468696 0.0 0.0 0.0 -17.205294716468696 0.0 0.0 0.0 -17.205294716468696" fermi_energy=0.90559487616 core_to_fermi_energy=14.727993966382636 config_type=EOS energy=-7856.964537494 stress="0.062184292734375674 -0.0 -0.0 -0.0 0.062184292734375674 -0.0 -0.0 -0.0 0.062184292734375674" pbc="T T T"
P        1.62904775       1.62904775       4.88714325      -0.58000000      -0.00000000      -0.00000000       0.00000000
P        4.88714325       1.62904775       1.62904775      -0.58000000       0.00000000      -0.00000000      -0.00000000
P        1.62904775       4.88714325       1.62904775      -0.58000000      -0.00000000       0.00000000      -0.00000000
P        4.88714325       4.88714325       4.88714325      -0.58000000       0.00000000       0.00000000       0.00000000
In       0.00000000       0.00000000       0.00000000       0.58000000       0.00000000       0.00000000       0.00000000
In       3.25809550       0.00000000       3.25809550       0.58000000      -0.00000000       0.00000000      -0.00000000
In       0.00000000       3.25809550       3.25809550       0.58000000       0.00000000      -0.00000000      -0.00000000
In       3.25809550       3.25809550       0.00000000       0.58000000      -0.00000000      -0.00000000       0.00000000
8
Lattice="6.830715 0.0 0.0 0.0 6.830715 0.0 0.0 0.0 6.830715" Properties=species:S:1:pos:R:3:mulliken_charges:R:1:forces:R:3 virial="-20.486983606706534 1.989244227061097e-06 1.989244227061097e-06 1.989244227061097e-06 -20.486983606706534 1.989244227061097e-06 1.989244227061097e-06 1.989244227061097e-06 -20.486983606706534" fermi_energy=0.049307028714 core_to_fermi_energy=14.658034041060825 config_type=EOS energy=-7854.263956431 stress="0.06428054102335831 -6.241509125883258e-09 -6.241509125883258e-09 -6.241509125883258e-09 0.06428054102335831 -6.241509125883258e-09 -6.241509125883258e-09 -6.241509125883258e-09 0.06428054102335831" pbc="T T T"
P        1.70767875       1.70767875       5.12303625      -0.53000000      -0.00000000      -0.00000000       0.00000000
P        5.12303625       1.70767875       1.70767875      -0.53000000       0.00000000      -0.00000000      -0.00000000
P        1.70767875       5.12303625       1.70767875      -0.53000000      -0.00000000       0.00000000      -0.00000000
P        5.12303625       5.12303625       5.12303625      -0.53000000       0.00000000       0.00000000       0.00000000
In       0.00000000       0.00000000       0.00000000       0.53000000      -0.00000000       0.00000000       0.00000000
In       3.41535750       0.00000000       3.41535750       0.53000000      -0.00000000       0.00000000      -0.00000000
In       0.00000000       3.41535750       3.41535750       0.53000000      -0.00000000      -0.00000000      -0.00000000
In       3.41535750       3.41535750       0.00000000       0.53000000      -0.00000000      -0.00000000       0.00000000
8
Lattice="5.729881 0.0 0.0 0.0 5.729881 0.0 0.0 0.0 5.729881" Properties=species:S:1:pos:R:3:mulliken_charges:R:1:forces:R:3 virial="8.655751751105997 -1.1741576643665751e-05 -1.1741576643665751e-05 -1.1741576643665751e-05 8.655751751105997 -1.1741576643665751e-05 -1.1741576643665751e-05 -1.1741576643665751e-05 8.655751751105997" fermi_energy=4.710072965874 core_to_fermi_energy=16.111346739396794 config_type=EOS energy=-7859.569857303 stress="-0.04601166877793453 6.241509125883259e-08 6.241509125883259e-08 6.241509125883259e-08 -0.04601166877793453 6.241509125883259e-08 6.241509125883259e-08 6.241509125883259e-08 -0.04601166877793453" pbc="T T T"
P        1.43247025       1.43247025       4.29741075      -0.70000000       0.00001000       0.00001000      -0.00000000
P        4.29741075       1.43247025       1.43247025      -0.70000000      -0.00000000       0.00001000       0.00001000
P        1.43247025       4.29741075       1.43247025      -0.70000000       0.00001000      -0.00000000       0.00001000
P        4.29741075       4.29741075       4.29741075      -0.70000000      -0.00000000      -0.00000000      -0.00000000
In       0.00000000       0.00000000       0.00000000       0.70000000       0.00000000       0.00000000       0.00000000
In       2.86494050       0.00000000       2.86494050       0.70000000      -0.00001000       0.00000000      -0.00001000
In       0.00000000       2.86494050       2.86494050       0.70000000       0.00000000      -0.00001000      -0.00001000
In       2.86494050       2.86494050       0.00000000       0.70000000      -0.00001000      -0.00001000       0.00000000
8
Lattice="4.754857 0.0 0.0 0.0 4.754857 0.0 0.0 0.0 4.754857" Properties=species:S:1:pos:R:3:mulliken_charges:R:1:forces:R:3 virial="120.3605072977612 -6.374198678650337e-05 -6.374198678650337e-05 -6.374198678650337e-05 120.3605072977612 -6.374198678650337e-05 -6.374198678650337e-05 -6.374198678650337e-05 120.36050662679293" fermi_energy=11.7710190728565 core_to_fermi_energy=19.638267074527725 config_type=EOS energy=-7828.830786217 stress="-1.1196225289470907 5.929433669589095e-07 5.929433669589095e-07 5.929433669589095e-07 -1.1196225289470907 5.929433669589095e-07 5.929433669589095e-07 5.929433669589095e-07 -1.1196225227055816" pbc="T T T"
P        1.18871425       1.18871425       3.56614275      -0.74000000      -0.00965000      -0.00965000       0.00967000
P        3.56614275       1.18871425       1.18871425      -0.74000000       0.00967000      -0.00965000      -0.00965000
P        1.18871425       3.56614275       1.18871425      -0.74000000      -0.00965000       0.00967000      -0.00965000
P        3.56614275       3.56614275       3.56614275      -0.74000000       0.00967000       0.00967000       0.00967000
In       0.00000000       0.00000000       0.00000000       0.74000000       0.00000000       0.00000000       0.00000000
In       2.37742850       0.00000000       2.37742850       0.74000000      -0.00002000       0.00000000      -0.00002000
In       0.00000000       2.37742850       2.37742850       0.74000000       0.00000000      -0.00002000      -0.00002000
In       2.37742850       2.37742850       0.00000000       0.74000000      -0.00002000      -0.00002000       0.00000000
8
Lattice="4.440333 0.0 0.0 0.0 4.440333 0.0 0.0 0.0 4.440333" Properties=species:S:1:pos:R:3:mulliken_charges:R:1:forces:R:3 virial="196.8001021197384 -9.999708094302844e-05 -9.999708094302844e-05 -9.999708094302844e-05 196.80010321260266 -9.999708094302844e-05 -9.999708094302844e-05 -9.999708094302844e-05 196.8001021197384" fermi_energy=15.587905553902502 core_to_fermi_energy=22.10470941463233 config_type=EOS energy=-7796.681265863 stress="-2.247908846779747 1.1421961700366362e-06 1.1421961700366362e-06 1.1421961700366362e-06 -2.247908859262765 1.1421961700366362e-06 1.1421961700366362e-06 1.1421961700366362e-06 -2.247908846779747" pbc="T T T"
P        1.11008325       1.11008325       3.33024975      -0.70000000       0.00003000       0.00003000      -0.00001000
P        3.33024975       1.11008325       1.11008325      -0.70000000      -0.00000000       0.00003000       0.00003000
P        1.11008325       3.33024975       1.11008325      -0.70000000       0.00003000      -0.00000000       0.00003000
P        3.33024975       3.33024975       3.33024975      -0.70000000      -0.00000000      -0.00000000      -0.00001000
In       0.00000000       0.00000000       0.00000000       0.70000000       0.00000000       0.00000000       0.00000000
In       2.22016650       0.00000000       2.22016650       0.70000000      -0.00003000       0.00000000      -0.00003000
In       0.00000000       2.22016650       2.22016650       0.70000000       0.00000000      -0.00003000      -0.00003000
In       2.22016650       2.22016650       0.00000000       0.70000000      -0.00003000      -0.00003000       0.00000000
8
Lattice="4.6605 0.0 0.0 0.0 4.6605 0.0 0.0 0.0 4.6605" Properties=species:S:1:pos:R:3:mulliken_charges:R:1:forces:R:3 virial="140.28108135453178 -1.8954328426895935e-06 -1.2636218951263955e-06 -1.8954328426895935e-06 140.28108135453178 -1.2636218951263955e-06 -1.2636218951263955e-06 -1.2636218951263955e-06 140.28108072272082" fermi_energy=12.8231200431645 core_to_fermi_energy=20.303952779243478 config_type=EOS energy=-7820.998744871 stress="-1.385803226170756 1.8724527377649774e-08 1.2483018251766515e-08 1.8724527377649774e-08 -1.385803226170756 1.2483018251766515e-08 1.2483018251766515e-08 1.2483018251766515e-08 -1.3858032199292467" pbc="T T T"
P        1.16512500       1.16512500       3.49537500      -0.74000000       0.00000000      -0.00000000      -0.00000000
P        3.49537500       1.16512500       1.16512500      -0.74000000      -0.00000000      -0.00000000      -0.00000000
P        1.16512500       3.49537500       1.16512500      -0.74000000       0.00000000       0.00000000      -0.00000000
P        3.49537500       3.49537500       3.49537500      -0.74000000      -0.00000000       0.00000000      -0.00000000
In       0.00000000       0.00000000       0.00000000       0.74000000       0.00000000       0.00000000       0.00000000
In       2.33025000       0.00000000       2.33025000       0.74000000       0.00000000       0.00000000       0.00000000
In       0.00000000       2.33025000       2.33025000       0.74000000       0.00000000       0.00000000       0.00000000
In       2.33025000       2.33025000       0.00000000       0.74000000       0.00000000       0.00000000       0.00000000
8
Lattice="5.792786 0.0 0.0 0.0 5.792786 0.0 0.0 0.0 5.792786" Properties=species:S:1:pos:R:3:mulliken_charges:R:1:forces:R:3 virial="5.222116131585842 1.941207886803497e-05 2.0625333797287154e-05 1.941207886803497e-05 5.222116131585842 2.0625333797287154e-05 2.0625333797287154e-05 2.0625333797287154e-05 5.222116131585842" fermi_energy=4.2704186265075 core_to_fermi_energy=15.8836334383716 config_type=EOS energy=-7859.795771219 stress="-0.026864828409809235 -9.986414601413212e-08 -1.0610565514001538e-07 -9.986414601413212e-08 -0.026864828409809235 -1.0610565514001538e-07 -1.0610565514001538e-07 -1.0610565514001538e-07 -0.026864828409809235" pbc="T T T"
P        1.44819650       1.44819650       4.34458950      -0.69000000      -0.00000000      -0.00000000      -0.00000000
P        4.34458950       1.44819650       1.44819650      -0.69000000      -0.00000000      -0.00000000      -0.00000000
P        1.44819650       4.34458950       1.44819650      -0.69000000      -0.00000000      -0.00000000      -0.00000000
P        4.34458950       4.34458950       4.34458950      -0.69000000      -0.00000000      -0.00000000      -0.00000000
In       0.00000000       0.00000000       0.00000000       0.69000000       0.00000000       0.00000000       0.00000000
In       2.89639300       0.00000000       2.89639300       0.69000000       0.00000000       0.00000000       0.00000000
In       0.00000000       2.89639300       2.89639300       0.69000000       0.00000000       0.00000000       0.00000000
In       2.89639300       2.89639300       0.00000000       0.69000000       0.00000000       0.00000000       0.00000000
8
Lattice="6.642001 0.0 0.0 0.0 6.642001 0.0 0.0 0.0 6.642001" Properties=species:S:1:pos:R:3:mulliken_charges:R:1:forces:R:3 virial="-18.83742866004238 -1.828885091895805e-06 -1.828885091895805e-06 -1.828885091895805e-06 -18.83742866004238 -1.828885091895805e-06 -1.828885091895805e-06 -1.828885091895805e-06 -18.83742866004238" fermi_energy=0.5250436639275 core_to_fermi_energy=14.67580770107469 config_type=EOS energy=-7855.927409078 stress="0.0642872444041595 6.241509125883258e-09 6.241509125883258e-09 6.241509125883258e-09 0.0642872444041595 6.241509125883258e-09 6.241509125883258e-09 6.241509125883258e-09 0.0642872444041595" pbc="T T T"
P        1.66050025       1.66050025       4.98150075      -0.56000000       0.00000000       0.00000000      -0.00000000
P        4.98150075       1.66050025       1.66050025      -0.56000000      -0.00000000       0.00000000       0.00000000
P        1.66050025       4.98150075       1.66050025      -0.56000000       0.00000000      -0.00000000       0.00000000
P        4.98150075       4.98150075       4.98150075      -0.56000000      -0.00000000      -0.00000000      -0.00000000
In       0.00000000       0.00000000       0.00000000       0.56000000      -0.00000000      -0.00000000      -0.00000000
In       3.32100050       0.00000000       3.32100050       0.56000000       0.00000000      -0.00000000       0.00000000
In       0.00000000       3.32100050       3.32100050       0.56000000      -0.00000000       0.00000000       0.00000000
In       3.32100050       3.32100050       0.00000000       0.56000000       0.00000000       0.00000000      -0.00000000
8
Lattice="4.157262 0.0 0.0 0.0 4.157262 0.0 0.0 0.0 4.157262" Properties=species:S:1:pos:R:3:mulliken_charges:R:1:forces:R:3 virial="296.22945065982634 -0.00029104255438362184 -0.00029104255438362184 -0.00029104255438362184 296.2294493144832 -0.00029104255438362184 -0.00029104255438362184 -0.00029104255438362184 296.22944841758783" fermi_energy=19.7858058407175 core_to_fermi_energy=24.969616765613477 config_type=EOS energy=-7748.430575163 stress="-4.1229308081537575 4.050739422698234e-06 4.050739422698234e-06 4.050739422698234e-06 -4.12293078942923 4.050739422698234e-06 4.050739422698234e-06 4.050739422698234e-06 -4.122930776946212" pbc="T T T"
P        1.03931550       1.03931550       3.11794650      -0.62000000       0.00004000       0.00004000       0.00004000
P        3.11794650       1.03931550       1.03931550      -0.62000000       0.00004000       0.00004000       0.00004000
P        1.03931550       3.11794650       1.03931550      -0.62000000       0.00004000       0.00004000       0.00004000
P        3.11794650       3.11794650       3.11794650      -0.62000000       0.00004000       0.00004000       0.00004000
In       0.00000000       0.00000000       0.00000000       0.62000000      -0.00004000      -0.00004000      -0.00004000
In       2.07863100       0.00000000       2.07863100       0.62000000      -0.00004000      -0.00004000      -0.00004000
In       0.00000000       2.07863100       2.07863100       0.62000000      -0.00004000      -0.00004000      -0.00004000
In       2.07863100       2.07863100       0.00000000       0.62000000      -0.00004000      -0.00004000      -0.00004000
8
Lattice="4.471786 0.0 0.0 0.0 4.471786 0.0 0.0 0.0 4.471786" Properties=species:S:1:pos:R:3:mulliken_charges:R:1:forces:R:3 virial="187.76906331858203 -0.00018864675798766165 -0.00018920488449058372 -0.00018864675798766165 187.76906276045548 -0.00018864675798766165 -0.00018920488449058372 -0.00018864675798766165 187.76906276045548" fermi_energy=15.165312752617501 core_to_fermi_energy=21.82587979993773 config_type=EOS energy=-7800.752478361 stress="-2.099814855817924 2.109630084548541e-06 2.1158715936744243e-06 2.109630084548541e-06 -2.0998148495764144 2.109630084548541e-06 2.1158715936744243e-06 2.109630084548541e-06 -2.0998148495764144" pbc="T T T"
P        1.11794650       1.11794650       3.35383950      -0.71000000       0.00003000       0.00003000       0.00003000
P        3.35383950       1.11794650       1.11794650      -0.71000000       0.00003000       0.00003000       0.00003000
P        1.11794650       3.35383950       1.11794650      -0.71000000       0.00003000       0.00003000       0.00003000
P        3.35383950       3.35383950       3.35383950      -0.71000000       0.00003000       0.00003000       0.00003000
In       0.00000000       0.00000000       0.00000000       0.71000000      -0.00003000      -0.00003000      -0.00003000
In       2.23589300       0.00000000       2.23589300       0.71000000      -0.00003000      -0.00003000      -0.00003000
In       0.00000000       2.23589300       2.23589300       0.71000000      -0.00003000      -0.00003000      -0.00003000
In       2.23589300       2.23589300       0.00000000       0.71000000      -0.00003000      -0.00003000      -0.00003000
8
Lattice="6.358929 0.0 0.0 0.0 6.358929 0.0 0.0 0.0 6.358929" Properties=species:S:1:pos:R:3:mulliken_charges:R:1:forces:R:3 virial="-14.437796934941334 -0.0 -1.6048762039176662e-06 -0.0 -14.437796934941334 -0.0 -1.6048762039176662e-06 -0.0 -14.437796934941334" fermi_energy=1.456570989516 core_to_fermi_energy=14.843122613063684 config_type=EOS energy=-7858.130155597 stress="0.056149901847325726 0.0 6.241509125883258e-09 0.0 0.056149901847325726 0.0 6.241509125883258e-09 0.0 0.056149901847325726" pbc="T T T"
P        1.58973225       1.58973225       4.76919675      -0.60000000       0.00000000       0.00000000      -0.00000000
P        4.76919675       1.58973225       1.58973225      -0.60000000      -0.00000000       0.00000000       0.00000000
P        1.58973225       4.76919675       1.58973225      -0.60000000       0.00000000      -0.00000000       0.00000000
P        4.76919675       4.76919675       4.76919675      -0.60000000      -0.00000000      -0.00000000      -0.00000000
In       0.00000000       0.00000000       0.00000000       0.60000000       0.00000000       0.00000000       0.00000000
In       3.17946450       0.00000000       3.17946450       0.60000000      -0.00000000       0.00000000      -0.00000000
In       0.00000000       3.17946450       3.17946450       0.60000000       0.00000000      -0.00000000      -0.00000000
In       3.17946450       3.17946450       0.00000000       0.60000000      -0.00000000      -0.00000000       0.00000000
8
Lattice="4.031452 0.0 0.0 0.0 4.031452 0.0 0.0 0.0 4.031452" Properties=species:S:1:pos:R:3:mulliken_charges:R:1:forces:R:3 virial="353.11950792319345 -4.907443811292686e-06 -4.907443811292686e-06 -4.907443811292686e-06 353.11950955900807 -4.907443811292686e-06 -4.907443811292686e-06 -4.907443811292686e-06 353.11950792319345" fermi_energy=21.9553695269025 core_to_fermi_energy=26.47249663349927 config_type=EOS energy=-7718.561522299 stress="-5.3893604474695875 7.48981095105991e-08 7.48981095105991e-08 7.48981095105991e-08 -5.389360472435624 7.48981095105991e-08 7.48981095105991e-08 7.48981095105991e-08 -5.3893604474695875" pbc="T T T"
P        1.00786300       1.00786300       3.02358900      -0.54000000      -0.00000000       0.00000000       0.00000000
P        3.02358900       1.00786300       1.00786300      -0.54000000       0.00000000       0.00000000      -0.00000000
P        1.00786300       3.02358900       1.00786300      -0.54000000      -0.00000000      -0.00000000      -0.00000000
P        3.02358900       3.02358900       3.02358900      -0.54000000       0.00000000      -0.00000000       0.00000000
In       0.00000000       0.00000000       0.00000000       0.54000000      -0.00000000       0.00000000      -0.00000000
In       2.01572600       0.00000000       2.01572600       0.54000000      -0.00000000       0.00000000      -0.00000000
In       0.00000000       2.01572600       2.01572600       0.54000000      -0.00000000       0.00000000      -0.00000000
In       2.01572600       2.01572600       0.00000000       0.54000000      -0.00000000       0.00000000      -0.00000000
8
Lattice="6.138763 0.0 0.0 0.0 6.138763 0.0 0.0 0.0 6.138763" Properties=species:S:1:pos:R:3:mulliken_charges:R:1:forces:R:3 virial="-8.83435759079775 2.887767378014908e-06 2.887767378014908e-06 2.887767378014908e-06 -8.83435759079775 2.887767378014908e-06 2.887767378014908e-06 2.887767378014908e-06 -8.83435759079775" fermi_energy=2.3903296486335 core_to_fermi_energy=15.121677937002525 config_type=EOS energy=-7859.380757393 stress="0.038188480099933815 -1.2483018251766515e-08 -1.2483018251766515e-08 -1.2483018251766515e-08 0.038188480099933815 -1.2483018251766515e-08 -1.2483018251766515e-08 -1.2483018251766515e-08 0.038188480099933815" pbc="T T T"
P        1.53469075       1.53469075       4.60407225      -0.64000000      -0.00000000      -0.00000000       0.00000000
P        4.60407225       1.53469075       1.53469075      -0.64000000       0.00000000      -0.00000000      -0.00000000
P        1.53469075       4.60407225       1.53469075      -0.64000000      -0.00000000       0.00000000      -0.00000000
P        4.60407225       4.60407225       4.60407225      -0.64000000       0.00000000       0.00000000       0.00000000
In       0.00000000       0.00000000       0.00000000       0.64000000      -0.00000000      -0.00000000      -0.00000000
In       3.06938150       0.00000000       3.06938150       0.64000000       0.00000000      -0.00000000       0.00000000
In       0.00000000       3.06938150       3.06938150       0.64000000      -0.00000000       0.00000000       0.00000000
In       3.06938150       3.06938150       0.00000000       0.64000000       0.00000000       0.00000000      -0.00000000
8
Lattice="5.698429 0.0 0.0 0.0 5.698429 0.0 0.0 0.0 5.698429" Properties=species:S:1:pos:R:3:mulliken_charges:R:1:forces:R:3 virial="10.488802694836496 -1.2704211624992535e-05 -1.2704211624992535e-05 -1.2704211624992535e-05 10.488802694836496 -1.2704211624992535e-05 -1.2704211624992535e-05 -1.2704211624992535e-05 10.488802694836496" fermi_energy=4.917804675147 core_to_fermi_energy=16.212322200771705 config_type=EOS energy=-7859.412209884 stress="-0.0566840002662458 6.865660038471584e-08 6.865660038471584e-08 6.865660038471584e-08 -0.0566840002662458 6.865660038471584e-08 6.865660038471584e-08 6.865660038471584e-08 -0.0566840002662458" pbc="T T T"
P        1.42460725       1.42460725       4.27382175      -0.70000000       0.00001000       0.00001000      -0.00000000
P        4.27382175       1.42460725       1.42460725      -0.70000000      -0.00000000       0.00001000       0.00001000
P        1.42460725       4.27382175       1.42460725      -0.70000000       0.00001000      -0.00000000       0.00001000
P        4.27382175       4.27382175       4.27382175      -0.70000000      -0.00000000      -0.00000000      -0.00000000
In       0.00000000       0.00000000       0.00000000       0.70000000       0.00000000       0.00000000       0.00000000
In       2.84921450       0.00000000       2.84921450       0.70000000      -0.00001000       0.00000000      -0.00001000
In       0.00000000       2.84921450       2.84921450       0.70000000       0.00000000      -0.00001000      -0.00001000
In       2.84921450       2.84921450       0.00000000       0.70000000      -0.00001000      -0.00001000       0.00000000
8
Lattice="6.987977 0.0 0.0 0.0 6.987977 0.0 0.0 0.0 6.987977" Properties=species:S:1:pos:R:3:mulliken_charges:R:1:forces:R:3 virial="-21.238459565077637 2.1298254414345908e-06 4.2596508828691816e-06 2.1298254414345908e-06 -21.238459565077637 2.1298254414345908e-06 4.2596508828691816e-06 2.1298254414345908e-06 -21.238459565077637" fermi_energy=-0.3221555810955 core_to_fermi_energy=14.638754775142576 config_type=EOS energy=-7852.834721891 stress="0.062239860890123413 -6.241509125883258e-09 -1.2483018251766515e-08 -6.241509125883258e-09 0.062239860890123413 -6.241509125883258e-09 -1.2483018251766515e-08 -6.241509125883258e-09 0.062239860890123413" pbc="T T T"
P        1.74699425       1.74699425       5.24098275      -0.51000000       0.00000000       0.00000000      -0.00000000
P        5.24098275       1.74699425       1.74699425      -0.51000000      -0.00000000       0.00000000       0.00000000
P        1.74699425       5.24098275       1.74699425      -0.51000000       0.00000000      -0.00000000       0.00000000
P        5.24098275       5.24098275       5.24098275      -0.51000000      -0.00000000      -0.00000000      -0.00000000
In       0.00000000       0.00000000       0.00000000       0.51000000       0.00000000      -0.00000000      -0.00001000
In       3.49398850       0.00000000       3.49398850       0.51000000      -0.00000000      -0.00000000       0.00000000
In       0.00000000       3.49398850       3.49398850       0.51000000       0.00000000       0.00000000       0.00000000
In       3.49398850       3.49398850       0.00000000       0.51000000      -0.00000000       0.00000000      -0.00001000
8
Lattice="6.484739 0.0 0.0 0.0 6.484739 0.0 0.0 0.0 6.484739" Properties=species:S:1:pos:R:3:mulliken_charges:R:1:forces:R:3 virial="-16.721285320102226 -0.0 -0.0 -0.0 -16.721285320102226 -0.0 -0.0 -0.0 -16.721285320102226" fermi_energy=1.008671600646 core_to_fermi_energy=14.746144231957981 config_type=EOS energy=-7857.210961725 stress="0.06131858917710653 0.0 0.0 0.0 0.06131858917710653 0.0 0.0 0.0 0.06131858917710653" pbc="T T T"
P        1.62118475       1.62118475       4.86355425      -0.58000000      -0.00000000      -0.00000000       0.00000000
P        4.86355425       1.62118475       1.62118475      -0.58000000       0.00000000      -0.00000000      -0.00000000
P        1.62118475       4.86355425       1.62118475      -0.58000000      -0.00000000       0.00000000      -0.00000000
P        4.86355425       4.86355425       4.86355425      -0.58000000       0.00000000       0.00000000       0.00000000